VARIABLES = "X"
 "Y"
 "Z"
 "Density"
 "Shear Strain Rate"
 "Mach Number"
 "Pressure"
 "Absolute Pressure"
 "Total Pressure"
 "Temperature"
 "Total Temperature"
 "Turbulent Kinetic Energy"
 "Bulk Energy Flow Rate"
 "X Bulk Momentum Flow Rate"
 "Y Bulk Momentum Flow Rate"
 "Z Bulk Momentum Flow Rate"
 "X Wall Shear"
 "Y Wall Shear"
 "Z Wall Shear"
 "U"
 "V"
 "W"
 "Dynamic Viscosity"
 "Eddy Viscosity"
 "X Vorticity"
 "Y Vorticity"
 "Z Vorticity"
 "Y Plus"
 "Solver Y Plus"
 "Node UserID"
 "Element UserID"
 "Material ID"
 "Part ID"
 "Property ID"
ZONE
DT=(DOUBLE,DOUBLE,DOUBLE,DOUBLE,DOUBLE,DOUBLE,DOUBLE,DOUBLE,DOUBLE,DOUBLE,DOUBLE,DOUBLE,DOUBLE,DOUBLE,DOUBLE,DOUBLE,DOUBLE,DOUBLE,DOUBLE,DOUBLE,DOUBLE,DOUBLE,DOUBLE,DOUBLE,DOUBLE,DOUBLE,DOUBLE,DOUBLE,DOUBLE,DOUBLE,DOUBLE,DOUBLE,DOUBLE,DOUBLE)
  5.63286008910848E-019                    0.15                       0        1.15016543865204        21375.5273437289       0.215996012091606       -4086.07031250017           98148.0234375  -1.45208064322722E-013        297.224853515625                     300        1.17999994754276                       0     0.00194210663903367   6.24754420855559E-010       0.288934081792821        27.4641494750874    7.8081323837705E-006                       0         74.663764953603                       0                       0   1.83100000867853E-005     0.00187028769869355     0.00370728267355763         21383.214843783    -0.00151971066444262        152.783721923797        34.9058341979955        8500.99966224033        8234.49966291585                       1                       1                       1 
    0.00400200100050025                    0.15                       0        1.14752498762956        21827.6046988858         0.1620780487832       -4097.75148594519        97909.4094226091       -1031.66569561979        297.184227016983        299.266628089667        17.0853332943926                       0     0.00225609022427785   6.09715627870333E-010       0.362713109150285        26.2563738727033   6.49595956611012E-006                       0        56.0258368721879                       0                       0   1.83100000867853E-005      0.0014679186404004     0.00370728267355763         21383.214843783    -0.00151971066444262        149.258628512481        34.7844822447329        8501.24928704953        8234.62447532045                       1                       1                       1 
     0.0080040020010005                    0.15                       0        1.14488453660708        22279.6820540428       0.108160085474794       -4109.43265939021        97670.7954077183       -2063.33139123958         297.14360051834        298.533256179334        32.9906666412425                       0     0.00257007380952203   5.94676834885108E-010        0.43649213650775        25.0485982703193   5.18378674844975E-006                       0        37.3879087907727                       0                       0   1.83100000867853E-005     0.00106554958210725     0.00370728267355763         21383.214843783    -0.00151971066444262        145.733535101165        34.6631302914704        8501.49891185874        8234.74928772506                       1                       1                       1 
     0.0120060030015007                    0.15                       0         1.1422440855846        22731.7594091997      0.0542421221663883       -4121.11383283524        97432.1813928274       -3094.99708685937        297.102974019698           297.799884269        48.8959999880924                       0     0.00288405739476622   5.79638041899882E-010       0.510271163865214        23.8408226679352   3.87161393078937E-006                       0        18.7499807093576                       0                       0   1.83100000867853E-005    0.000663180523814093     0.00370728267355763         21383.214843783    -0.00151971066444262        142.208441689849        34.5417783382079        8501.74853666795        8234.87410012966                       1                       1                       1 
      0.016008004002001                    0.15                       0        1.13960363456212        23183.8367643566    0.000324158857982266       -4132.79500628026        97193.5673779366       -4126.66278247917        297.062347521055        297.066512358667        64.8013333349422                       0      0.0031980409800104   5.64599248914657E-010       0.584050191222678        22.6330470655512     2.559441113129E-006                       0       0.112052627942525                       0                       0   1.83100000867853E-005    0.000260811465520939     0.00370728267355763         21383.214843783    -0.00151971066444262        138.683348278533        34.4204263849454        8501.99816147716        8234.99891253427                       1                       1                       1 
     0.0200100050025013                    0.15                       0        1.13962038526807        24154.9576391102   1.00000000362749E-015       -4138.07692973088         97186.922207533       -4138.07692973088        297.037675531844        297.037675531844        61.8113206306551                       0     0.00303921637808533   3.42134088722772E-010        0.58523141927533        21.4894416054854   1.11165064314102E-006                       0                       0                       0                       0   1.83100000867853E-005    0.000252011042534538     0.00236975839957023        23182.3739325908    -0.00187714312117119        134.985216210097        33.5696520738842        8502.24778628637        8235.24778696189                       1                       1                       1 
     0.0240120060030015                    0.15                       0        1.13965320789663        25129.2179169355   1.00000000362749E-015       -4143.32014770831        97181.6800865396       -4143.32014770831        297.013100042509        297.013100042509        58.7070205783909                       0      0.0028775320246879   1.18414112160611E-010       0.585973543965967        20.3462242747581  -3.36962428412939E-007                       0                       0                       0                       0   1.83100000867853E-005    0.000245591095439326     0.00102414210316593        24992.4151253324    -0.00223672949602694        131.286037528394        32.7144658962745        8502.49741109558         8235.4974117711                       1                       1                       1 
     0.0280140070035018                    0.15                       0         1.1396860305252        26103.4781947608   1.00000000362749E-015       -4148.56336568573        97176.4379655462       -4148.56336568573        296.988524553175        296.988524553175        55.6027205261268                       0     0.00271584767129047   -1.0530586440155E-010       0.586715668656605        19.2030069440307   -1.7855754999669E-006                       0                       0                       0                       0   1.83100000867853E-005    0.000239171148344113   -0.000321474193238374        26802.4563180741     -0.0025963158708827        127.586858846691        31.8592797186649        8502.74703590479        8235.74703658031                       1                       1                       1 
      0.032016008004002                    0.15                       0        1.13971885315376        27077.7384725861   1.00000000362749E-015       -4153.80658366316        97171.1958445528       -4153.80658366316         296.96394906384         296.96394906384        52.4984204738626                       0     0.00255416331789304  -3.29025840963711E-010       0.587457793347242        18.0597896133034  -3.23418857152086E-006                       0                       0                       0                       0   1.83100000867853E-005    0.000232751201248901    -0.00166709048964267        28612.4975108157    -0.00295590224573846        123.887680164987        31.0040935410552          8502.996660714        8235.99666138952                       1                       1                       1 
     0.0360180090045022                    0.15                       0        1.13981071054267        27555.7045025225   1.00000000362749E-015        -4154.5949276663        97170.4064299465        -4154.5949276663        296.937604886386        296.937604886386        51.6085491184524                       0     0.00251274241264969  -3.60848831881224E-010       0.587569175009807        17.7668926920879  -4.42867507776589E-006                       0                       0                       0                       0   1.83100000867853E-005    0.000230801751715736    -0.00380142219186944        28911.3525787843    -0.00186144917092817        122.874650470937        30.7444106485859        8503.24628549456        8236.24628617008                       1                       1                       1 
     0.0400200100050025                    0.15                       0        1.13990328641357        28027.6303880212   1.00000000362749E-015       -4155.32905366786        97169.6712069611       -4155.32905366786         296.91123918313         296.91123918313        50.7456284467051                       0      0.0024727851725668   -3.9033668989925E-010       0.587672880220376        17.4843445874355  -5.62007206047298E-006                       0                       0                       0                       0   1.83100000867853E-005    0.000228906710331221    -0.00594535677919413        29191.8157703155   -0.000749291749147856        121.894312527963        30.4919753232627        8503.49591027477        8236.49591095029                       1                       1                       1 
     0.0440220110055028                    0.15                       0        1.13999586228447          28499.55627352   1.00000000362749E-015       -4156.06317966942        97168.9359839756       -4156.06317966942        296.884873479874        296.884873479874        49.8827077749578                       0     0.00243282793248391  -4.19824547917275E-010       0.587776585430945         17.201796482783  -6.81146904318007E-006                       0                       0                       0                       0   1.83100000867853E-005    0.000227011668946706    -0.00808929136651881        29472.2789618467     0.00036286567263246         120.91397458499        30.2395399979396        8503.74553505498        8236.74553573049                       1                       1                       1 
      0.048024012006003                    0.15                       0        1.14008843815536        28971.4821590188   1.00000000362749E-015       -4156.79730567097        97168.2007609901       -4156.79730567097        296.858507776618        296.858507776618        49.0197871032104                       0     0.00239287069240101    -4.493124059353E-010       0.587880290641514        16.9192483781305  -8.00286602588717E-006                       0                       0                       0                       0   1.83100000867853E-005    0.000225116627562191     -0.0102332259538435        29752.7421533779     0.00147502309441278        119.933636642017        29.9871046726164        8503.99515983518         8236.9951605107                       1                       1                       1 
     0.0520260130065033                    0.15                       0        1.14017359194616        28670.2943953734   1.00000000362749E-015       -4156.98541204778         97168.013233271       -4156.98541204778        296.835770130686        296.835770130686        49.1510995904938                       0     0.00239450341755694  -4.16573162496005E-010       0.587906852776375        16.9307860676011  -8.01411252190005E-006                       0                       0                       0                       0   1.83100000867853E-005    0.000225428838738656    -0.00880646894782313        29284.4664925766     0.00254709522866673        119.979258684212        30.0286953039184        8504.24478467235        8237.24478534787                       1                       1                       1 
     0.0560280140070035                    0.15                       0        1.14025860940827        28354.9060885543   1.00000000362749E-015       -4157.16348914184        97167.8357656126       -4157.16348914184        296.813099124871        296.813099124871        49.3006741414541                       0     0.00239690006673238  -3.82690811507051E-010       0.587931997948052        16.9477255216681  -8.00368265033003E-006                       0                       0                       0                       0   1.83100000867853E-005    0.000225781592705801    -0.00731412300219623        28802.4380046988     0.00361843722250136        120.043725548023        30.0756866007479        8504.49440951056        8237.49441018608                       1                       1                       1 
     0.0600300150075038                    0.15                       0        1.14034362687037        28039.5177817353   1.00000000362749E-015       -4157.34156623589        97167.6582979542       -4157.34156623589        296.790428119057        296.790428119057        49.4502486924143                       0     0.00239929671590782  -3.48808460518098E-010       0.587957143119728        16.9646649757352  -7.99325277876002E-006                       0                       0                       0                       0   1.83100000867853E-005    0.000226134346672946    -0.00582177705656934        28320.4095168211       0.004689779216336        120.108192411834        30.1226778975773        8504.74403434877        8237.74403502429                       1                       1                       1 
      0.064032016008004                    0.15                       0        1.14042864433248        27724.1294749162   1.00000000362749E-015       -4157.51964332995        97167.4808302957       -4157.51964332995        296.767757113243        296.767757113243        49.5998232433746                       0     0.00240169336508326  -3.14926109529145E-010       0.587982288291405        16.9816044298022     -7.98282290719E-006                       0                       0                       0                       0   1.83100000867853E-005     0.00022648710064009    -0.00432943111094245        27838.3810289434     0.00576112121017063        120.172659275646        30.1696691944068        8504.99365918698         8237.9936598625                       1                       1                       1 
     0.0680340170085043                    0.15                       0        1.14048261589391         27211.147957417   1.00000000362749E-015       -4158.05934626226         97166.941736799       -4158.05934626226        296.752067341772        296.752067341772        49.5756031652265                       0     0.00239709969129252  -3.07804426798863E-010       0.588058663480501        16.9491660280316  -7.46279295861017E-006                       0                       0                       0                       0   1.83100000867853E-005     0.00022644331390742    -0.00247699682441761        27261.2551352033     0.00635142187682718        120.060487759623        30.1638338301718        8505.24328391198         8238.2432845875                       1                       1                       1 
     0.0720360180090045                    0.15                       0         1.1405358224573        26693.2975708195   1.00000000362749E-015       -4158.60795997058         97166.393732526       -4158.60795997058        296.736549593996        296.736549593996        49.5471006353765                       0     0.00239233376982335  -3.01341764369203E-010       0.588136301021823        16.9155109126872  -6.93020273465972E-006                       0                       0                       0                       0   1.83100000867853E-005     0.00022638975606503   -0.000615683197720613        26681.7859585361     0.00692987633222792        119.943963719376        30.1566967707964        8505.49290863418         8238.4929093097                       1                       1                       1 
     0.0760380190095048                    0.15                       0        1.14058902902069        26175.4471842221   1.00000000362749E-015        -4159.1565736789         97165.845728253        -4159.1565736789         296.72103184622         296.72103184622        49.5185981055265                       0     0.00238756784835417  -2.94879101939542E-010       0.588213938563144        16.8818557973428  -6.39761251070926E-006                       0                       0                       0                       0   1.83100000867853E-005    0.000226336198222639     0.00124563042897639        26102.3167818689     0.00750833078762865        119.827439679128        30.1495597114209        8505.74253335638         8238.7425340319                       1                       1                       1 
      0.080040020010005                    0.15                       0        1.14064223558408        25657.5967976246   1.00000000362749E-015       -4159.70518738722        97165.2977239801       -4159.70518738722        296.705514098444        296.705514098444        49.4900955756765                       0       0.002382801926885  -2.88416439509881E-010       0.588291576104465        16.8482006819984   -5.8650222867588E-006                       0                       0                       0                       0   1.83100000867853E-005    0.000226282640380249     0.00310694405567339        25522.8476052017     0.00808678524302939        119.710915638881        30.1424226520455        8505.99215807859         8238.9921587541                       1                       1                       1 
     0.0840420210105053                    0.15                       0        1.14067290014235        25224.4505817732   1.00000000362749E-015       -4160.58707193664         97164.414911967       -4160.58707193664        296.694843486052        296.694843486052        49.2407515738977                       0      0.0023699169785526  -1.01428937298817E-010       0.588416390308854        16.7570965698578  -4.17600726134219E-006                       0                       0                       0                       0   1.83100000867853E-005    0.000225726100467902     0.00443647062380968         25086.344277027      0.0069108213803731        119.387059833924        30.0682868691396        8506.24178291331        8239.24178358883                       1                       1                       1 
     0.0880440220110055                    0.15                       0        1.14070286604517        24793.9296440082   1.00000000362749E-015       -4161.47928571384        97163.5217230928       -4161.47928571384        296.684323103314        296.684323103314        48.9845629233929                       0     0.00235678039320899   9.11541110347618E-011       0.588542666682831        16.6642119125943  -2.45114588101992E-006                       0                       0                       0                       0   1.83100000867853E-005    0.000225153971384046     0.00574951715128852        24654.2719598964      0.0056804755812545        119.056778093223         29.992074561729        8506.49140775152        8239.49140842704                       1                       1                       1 
     0.0920460230115058                    0.15                       0        1.14073283194798        24363.4087062432   1.00000000362749E-015       -4162.37149949105        97162.6285342186       -4162.37149949105        296.673802720575        296.673802720575        48.7283742728881                       0     0.00234364380786537   2.83737159368341E-010       0.588668943056807        16.5713272553308  -7.26284500697644E-007                       0                       0                       0                       0   1.83100000867853E-005     0.00022458184230019     0.00706256367876736        24222.1996427658     0.00445012978213589        118.726496352522        29.9158622543184        8506.74103258973        8239.74103326525                       1                       1                       1 
      0.096048024012006                    0.15                       0         1.1407627978508        23932.8877684782   1.00000000362749E-015       -4163.26371326825        97161.7353453443       -4163.26371326825        296.663282337837        296.663282337837        48.4721856223832                       0     0.00233050722252175    4.7632020770192E-010       0.588795219430784        16.4784425980674   9.98576879624625E-007                       0                       0                       0                       0   1.83100000867853E-005    0.000224009713216335      0.0083756102062462        23790.1273256352     0.00321978398301729        118.396214611821        29.8396499469078        8506.99065742795        8239.99065810346                       1                       1                       1 
      0.100050025012506                    0.15                       0        1.14078281035626        23632.4036261967   1.00000000362749E-015       -4164.05218315752        97160.9474277314       -4164.05218315752        296.655677181842        296.655677181842        48.1648822895195                       0     0.00231560034380282   4.18906613756335E-010       0.588906823865938        16.3730089728675   4.90408333544142E-007                       0                       0                       0                       0   1.83100000867853E-005    0.000223312756292184     0.00702007473519923        23505.1062714619     0.00259043612283843         118.01611333528        29.7468123107026        8507.24028226616        8240.24028294168                       1                       1                       1 
      0.104052026013007                    0.15                       0        1.14080245037201        23336.7858990931   1.00000000362749E-015       -4164.83677060067        97160.1634497239       -4164.83677060067        296.648181123467        296.648181123467         47.855666072618                       0     0.00230062721472813   3.52137371689245E-010        0.58901787922771        16.2671057228626  -1.01327132334069E-007                       0                       0                       0                       0   1.83100000867853E-005    0.000222611127888704     0.00556466971100055        23225.5883713259     0.00198356600041457         117.63414764332        29.6533524985537        8507.48990710437        8240.48990777989                       1                       1                       1 
      0.108054027013507                    0.15                       0        1.14082209038776        23041.1681719895   1.00000000362749E-015       -4165.62135804382        97159.3794717164       -4165.62135804382        296.640685065093        296.640685065093        47.5464498557165                       0     0.00228565408565344   2.85368129622154E-010       0.589128934589483        16.1612024728577  -6.93062598212279E-007                       0                       0                       0                       0   1.83100000867853E-005    0.000221909499485224     0.00410926468680187          22946.07047119     0.00137669587799072         117.25218195136        29.5598926864049        8507.73953194258         8240.7395326181                       1                       1                       1 
      0.112056028014007                    0.15                       0        1.14084173040351        22745.5504448859   1.00000000362749E-015       -4166.40594548697        97158.5954937088       -4166.40594548697        296.633189006719        296.633189006719        47.2372336388149                       0     0.00227068095657875   2.18598887555064E-010       0.589239989951255        16.0552992228528  -1.28479806409049E-006                       0                       0                       0                       0   1.83100000867853E-005    0.000221207871081745     0.00265385966260319         22666.552571054    0.000769825755566862          116.8702162594         29.466432874256        8507.98915678079        8240.98915745631                       1                       1                       1 
      0.116058029014507                    0.15                       0        1.14085680957906        22539.1653446965   1.00000000362749E-015       -4167.00056846262        97158.0001958361       -4167.00056846262        296.627451608327        296.627451608327        46.9579228513676                       0     0.00225712757831716   3.17004180137466E-010       0.589324164861119        15.9594695006907  -5.07376598367304E-007                       0                       0                       0                       0   1.83100000867853E-005    0.000220566367463614      0.0025886804586899        22470.9212049195     0.00155837218467103        116.520249422634        29.3809782489086          8508.238781619        8241.23878229452                       1                       1                       1 
      0.120060030015008                    0.15                       0        1.14087168837886        22336.7005865149   1.00000000362749E-015       -4167.58684554845        97157.4131874275       -4167.58684554845        296.621791474818        296.621791474818        46.6799259273767                       0     0.00224363657531248   4.22666145851991E-010       0.589407158806452        15.8640823483298   3.30196519739059E-007                       0                       0                       0                       0   1.83100000867853E-005    0.000219927505364308     0.00258457623475516        22278.9753058871     0.00240821886188212        116.171688421701        29.2958753229755        8508.48840645721        8241.48840713273                       1                       1                       1 
      0.124062031015508                    0.15                       0        1.14088656717867        22134.2358283333   1.00000000362749E-015       -4168.17312263429        97156.8261790189       -4168.17312263429         296.61613134131         296.61613134131        46.4019290033858                       0     0.00223014557230779   5.28328111566515E-010       0.589490152751785        15.7686951959689   1.16776963784542E-006                       0                       0                       0                       0   1.83100000867853E-005    0.000219288643265001     0.00258047201082043        22087.0294068548      0.0032580655390932        115.823127420768        29.2107723970423        8508.73803129542        8241.73803197094                       1                       1                       1 
      0.128064032016008                    0.15                       0        1.14090144597848        21931.7710701517   1.00000000362749E-015       -4168.75939972013        97156.2391706103       -4168.75939972013        296.610471207802        296.610471207802         46.123932079395                       0     0.00221665456930311   6.33990077281039E-010       0.589573146697118         15.673308043608   2.00534275595178E-006                       0                       0                       0                       0   1.83100000867853E-005    0.000218649781165695     0.00257636778688569        21895.0835078224     0.00410791221630429        115.474566419834        29.1256694711092        8508.98765613364        8241.98765680916                       1                       1                       1 
      0.132066033016508                    0.15                       0        1.14091363376874        21777.9472117645   1.00000000362749E-015       -4169.21073980003        97155.7876793312       -4169.21073980003        296.605920563158        296.605920563158        45.8879697644037                       0     0.00220511654110506   5.35564760598089E-010       0.589637133626815         15.591692070296   2.31816818229855E-006                       0                       0                       0                       0   1.83100000867853E-005    0.000218102011790966     0.00309718012243625        21746.1243874246     0.00348535661480149        115.173091666575        29.0527006834266        8509.23728086142        8242.23728153694                       1                       1                       1 
      0.136068034017009                    0.15                       0        1.14092568559099        21626.5810208383   1.00000000362749E-015       -4169.65526194938        97155.3430352948       -4169.65526194938          296.6014259774          296.6014259774        45.6541313224305                       0     0.00219367719042146   4.26827514380328E-010       0.589700160193515        15.5107719101711   2.60448045386517E-006                       0                       0                       0                       0   1.83100000867853E-005    0.000217558845037387     0.00364451267648475        21599.3372499964     0.00278840059459857        114.873996029271        28.9803449945522        8509.48690558362        8242.48690625915                       1                       1                       1 