VARIABLES = "X"
 "Y"
 "Z"
 "Density"
 "Shear Strain Rate"
 "Mach Number"
 "Pressure"
 "Absolute Pressure"
 "Total Pressure"
 "Temperature"
 "Total Temperature"
 "Turbulent Kinetic Energy"
 "Bulk Energy Flow Rate"
 "X Bulk Momentum Flow Rate"
 "Y Bulk Momentum Flow Rate"
 "Z Bulk Momentum Flow Rate"
 "X Wall Shear"
 "Y Wall Shear"
 "Z Wall Shear"
 "U"
 "V"
 "W"
 "Dynamic Viscosity"
 "Eddy Viscosity"
 "X Vorticity"
 "Y Vorticity"
 "Z Vorticity"
 "Y Plus"
 "Solver Y Plus"
 "Node UserID"
 "Element UserID"
 "Material ID"
 "Part ID"
 "Property ID"
ZONE
DT=(DOUBLE,DOUBLE,DOUBLE,DOUBLE,DOUBLE,DOUBLE,DOUBLE,DOUBLE,DOUBLE,DOUBLE,DOUBLE,DOUBLE,DOUBLE,DOUBLE,DOUBLE,DOUBLE,DOUBLE,DOUBLE,DOUBLE,DOUBLE,DOUBLE,DOUBLE,DOUBLE,DOUBLE,DOUBLE,DOUBLE,DOUBLE,DOUBLE,DOUBLE,DOUBLE,DOUBLE,DOUBLE,DOUBLE,DOUBLE)
                    7.9                    0.15                       0         1.1376482265247        14205.2065896606   1.00000000362749E-015       -4496.39091998126        96828.6101725619       -4496.39091998126        296.455560679779        296.455560679779         27.113294277244                       0     0.00129281791607771  -5.19461918482728E-009       0.636054036218544        9.14079979787843  -3.36944497831458E-005                       0                       0                       0                       0   1.83100000867853E-005    0.000168813357566517      0.0635356516768442        14209.0101079838    -0.00316686000243682        88.0601959184117        22.4870370595882        8993.76213324146        8726.76213391697                       1                       1                       1 
                    7.9                    0.15    0.000233488992661774        1.13765301398227         14205.199073809      0.0622014995358604       -4496.39069196476        96828.6101725619       -3934.71443224005        296.454310212975         296.94586083398         28.684245682155                       0    0.000689098834550385  -2.76738089793333E-009       0.339031369142738        4.87223770312638  -1.79157164832197E-005                       0        21.4733723316102  -8.17035684899429E-005   3.40260110879929E-005   1.83100000867853E-005    0.000422914092175919      0.0635356516768442        14209.0101079838    -0.00316686000243682        46.9379746069502        11.9860742231266         17165.876488249        12688.1361952615                       1                       1                       1 
                    7.9                    0.15    0.000466977985323549        1.13765780143983        14205.1876881949        0.12440263592657       -4496.39046394818        96828.6101725619       -3373.04474078094        296.453058738417         297.43615494167        30.2551901589464                       0   8.53865074085858E-005  -3.46312875735288E-010      0.0420063814804017       0.603717808014825  -2.32293115285354E-006                       0        42.9466194499855   -0.000162644237094142   6.60223462749047E-005   1.83100000867853E-005    0.000677014016610849      0.0635356516768442        14209.0101079838    -0.00316686000243682        5.81596542741275        1.48516221518183        25337.9908432565         16649.510256606                       1                       1                       1 
                    7.9                    0.15    0.000700466977985324        1.13765874596915        11563.3787025163       0.138375199762333       -4496.39030711458        96828.6101725619       -3195.28197259057        296.452813915655        297.591474585493        29.6980187082862                       0                       0                       0                       0                       0                       0                       0        47.7702615617653   -0.000183618614838765    0.000134001492842527   1.83100000867853E-005    0.000930489420343005      0.0533144672515052        11566.4397359411    -0.00453306654763255                       0                       0        33037.2916224497        23553.6204947117                       1                       1                       1 
                    7.9                    0.15    0.000933955970647098        1.13765905746982        8486.47111340401       0.144402887263288       -4496.39010592695        96828.6101725619       -3080.76852902747        296.452734171483        297.691607399938        28.7903391244316                       0                       0                       0                       0                       0                       0                       0        49.8511514773809   -0.000195773080662154    0.000215936647184382   1.83100000867853E-005     0.00118385817027635      0.0417560024494127        8488.64519560976    -0.00588719853375839                       0                       0        40658.7079037818        30942.4747020877                       1                       1                       1 
                    7.9                    0.15     0.00116744496330887        1.13765935717008        6565.27114489864       0.149129196160165       -4496.39000362934        96828.6101725619       -2987.72087751487        296.452657448216        297.772960780429        28.1965869375514                       0                       0                       0                       0                       0                       0                       0        51.4827734381256   -0.000203950434033104    0.000284042269933959   1.83100000867853E-005     0.00145070609987036      0.0340191739338036        6566.90545936669    -0.00731604865930166                       0                       0        47991.4063409964        38051.4210841324                       1                       1                       1 
                    7.9                    0.15     0.00140093395597065         1.1376596476889         5543.4264997639       0.152842641240229       -4496.39000140957        96828.6101725619       -2911.38784430288        296.452583075398        297.839685871204        27.8472116547642                       0                       0                       0                       0                       0                       0                       0        52.7647310663776   -0.000211299508010945    0.000350143270073691   1.83100000867853E-005     0.00172803437783588      0.0281191306240627        5544.78659831152    -0.00812570463638173                       0                       0        55099.4644759005        44942.5819022343                       1                       1                       1 
                    7.9                    0.15     0.00163442294863242        1.13765993397664        4574.69010283763       0.156442608111274       -4496.38992484435        96828.6101725619       -2837.10467024512        296.452509205279        297.904620265043        27.5140442234583                       0                       0                       0                       0                       0                       0                       0         54.007513332907   -0.000218237638793144    0.000419660738419964   1.83100000867853E-005     0.00200609633058121      0.0234437483494404        4575.79235700719    -0.00917290801695414                       0                       0        62159.4779173649        51787.1640763992                       1                       1                       1 
                    7.9                    0.15      0.0018679119412942        1.13766019304962        4081.98821829088       0.159025094334113       -4496.38973986667        96828.6101725619       -2781.22398274468        296.452439838649         297.95344281142        27.3264021167655                       0                       0                       0                       0                       0                       0                       0        54.8990407296387   -0.000222481207593568    0.000498624999312456   1.83100000867853E-005     0.00229071419352016      0.0206062600101677        4082.96175702858     -0.0102579375285121                       0                       0        68789.0779633467        58214.4666124065                       1                       1                       1 
                    7.9                    0.15     0.00210140093395597        1.13766046203185        3589.29408610674       0.161607527294736       -4496.38955488899        96828.6101725619       -2725.34548701168        296.452370472019        298.002265357796        27.1387771332558                       0                       0                       0                       0                       0                       0                       0        55.7905500518992   -0.000226927467237991    0.000578129839280538   1.83100000867853E-005     0.00257533300480525      0.0177940493922334        3590.13919353059     -0.0113527812227168                       0                       0        75418.6780093285        64641.7691484138                       1                       1                       1 
                    7.9                    0.15     0.00233488992661775        1.13766074153072          3197.465335452       0.163892606686767       -4496.38937564501        96828.6101725619       -2675.15513347906        296.452295803082        298.046114147109        26.9816199504825                       0                       0                       0                       0                       0                       0                       0        56.5794036923636   -0.000230688133517505    0.000655347475216279   1.83100000867853E-005     0.00286028985147539      0.0153236891921392        3198.20749931756     -0.0122429484700185                       0                       0        81842.7822631547        70869.8464495803                       1                       1                       1 
                    7.9                    0.15     0.00256837891927952        1.13766100762715        2923.71785998544       0.165829449404544        -4496.3892031119        96828.6101725619       -2631.63102790952        296.452219179589        298.084137271619        26.8601912993618                       0                       0                       0                       0                       0                       0                       0        57.2480359308974   -0.000234181080741409    0.000731106517396606   1.83100000867853E-005     0.00314564844581186      0.0134701380555166        2924.38573246039     -0.0129589352150733                       0                       0        88026.3689479746        76864.7454035606                       1                       1                       1 
                    7.9                    0.15     0.00280186791194129         1.1376612794989        2649.96957628231       0.167766301025936       -4496.38903057879        96828.6101725619       -2588.10653202087         296.45214206327        298.122160888957        26.7387595680713                       0                       0                       0                       0                       0                       0                       0        57.9166712496011   -0.000237669210499975    0.000806876784976167   1.83100000867853E-005      0.0034310066002315      0.0115985961251371        2650.56337421061     -0.0136701111649815                       0                       0        94209.9556327946        82859.6443575408                       1                       1                       1 
                    7.9                    0.15     0.00303535690460307         1.1376615696323        2443.15180777266       0.169444133499754       -4496.38881461333        96828.6101725619       -2549.74147881062         296.45206778912        298.155667461864        26.6371444139015                       0                       0                       0                       0                       0                       0                       0        58.4958892061146   -0.000240056175545353    0.000880381501714475   1.83100000867853E-005     0.00371472844425247      0.0100711604091855        2443.69098504877     -0.0139292923454847                       0                       0        100131.364983267        88600.3661312617                       1                       1                       1 
                    7.9                    0.15     0.00326884589726484        1.13766188041991        2275.53838791141       0.170970164527144       -4496.38864643674        96828.6101725619       -2514.40281314082        296.451997380527        298.186517389105        26.5471786935058                       0                       0                       0                       0                       0                       0                       0        59.0227026720807   -0.000242095424124402    0.000953453851930671   1.83100000867853E-005     0.00399750380116002     0.00893184260162953        2276.03386297211     -0.0140412765661283                       0                       0        105899.236884923        94192.2355417473                       1                       1                       1 
                    7.9                    0.15     0.00350233488992662        1.13766218227739        2107.92382042068       0.172496213972938       -4496.38845997122        96828.6101725619       -2479.06336104762        296.451926971934         298.21736960246        26.4572053289148                       0                       0                       0                       0                       0                       0                       0        59.5495225677439   -0.000244065828253632     0.00102629028394468   1.83100000867853E-005       0.004280276707513     0.00776598748575155        2108.37546981578     -0.0141292790144269                       0                       0        111667.108786579        99784.1049522329                       1                       1                       1 
                    7.9                    0.15     0.00373582388258839        1.13766243535456         1974.8078983182       0.173854197219951       -4496.38827302862        96828.6101725619       -2447.17834466186        296.451859385239        298.245203362789        26.3770303014765                       0                       0                       0                       0                       0                       0                       0        60.0183216357953    -0.00024570466057989     0.00110363301702605   1.83100000867853E-005     0.00456032624899691     0.00684283848294074        1975.22556418494     -0.0142596654854893                       0                       0        117203.810907309        105151.858562535                       1                       1                       1 
                    7.9                    0.15     0.00396931287525017        1.13766265848564        1865.02201859421       0.175098447103601       -4496.38812290571        96828.6101725619       -2417.63314383825        296.451793706464        298.270995530193        26.3035257857807                       0                       0                       0                       0                       0                       0                       0        60.4478572519812   -0.000247510545770282     0.00118307655667254   1.83100000867853E-005     0.00483855267771424     0.00607695858535074        1865.41280706623     -0.0144495503357664                       0                       0        122584.216083846        110368.084518258                       1                       1                       1 
                    7.9                    0.15     0.00420280186791194         1.1376628805299        1755.23633474148       0.176342692368261        -4496.3879727828        96828.6101725619       -2388.08813220848         296.45172802769        298.296787975823        26.2300234437272                       0                       0                       0                       0                       0                       0                       0        60.8773913031445    -0.00024933452536636     0.00126241753393529   1.83100000867853E-005     0.00511678005740013     0.00530670852872507        1755.60026028654     -0.0146381497312742                       0                       0        127964.621260384         115584.31047398                       1                       1                       1 
                    7.9                    0.15     0.00443629086057372        1.13766312502349        1657.24009008079        0.17751678823733       -4496.38785022038        96828.6101725619       -2360.02149986385        296.451662360166        298.321281916474        26.1596611550276                       0                       0                       0                       0                       0                       0                       0        61.2827078827646   -0.000250623175590633     0.00134307695704492   1.83100000867853E-005     0.00539297738692475     0.00468355961267811        1657.57948408642      -0.014798760252162                       0                       0        133220.748678465        120680.050918275                       1                       1                       1 
                    7.9                    0.15     0.00466977985323549        1.13766339027306         1581.7257229065       0.178556987909612       -4496.38774407289        96828.6101725619       -2334.77997947693        296.451594456274        298.343306106241         26.095366635793                       0                       0                       0                       0                       0                       0                       0        61.6418005675965   -0.000251447761240596     0.00142665067115971   1.83100000867853E-005     0.00566534363674632     0.00423366968640504        1582.04619921937     -0.0149055235425611                       0                       0        138239.960321698        125546.104903366                       1                       1                       1 
                    7.9                    0.15     0.00490326884589726        1.13766366379839        1506.21288111854       0.179597153444423       -4496.38760402792        96828.6101725619       -2309.53981498898         296.45152443379        298.365328177416        26.0310909190635                       0                       0                       0                       0                       0                       0                       0        62.0008813353477   -0.000252312386086687     0.00151333315801287   1.83100000867853E-005     0.00593772103943474     0.00379965858159193         1506.5151515856     -0.0150460754937538                       0                       0        143259.171964931        130412.158888456                       1                       1                       1 
                    7.9                    0.15     0.00513675783855904        1.13766392560245        1430.69787886667        0.18063736732946       -4496.38751199326        96828.6101725619       -2284.29773008867        296.451457411951        298.387353249235        25.9667885716157                       0                       0                       0                       0                       0                       0                       0        62.3599789817232   -0.000253120301864055     0.00159561256928221   1.83100000867853E-005     0.00621008264588461     0.00334315768516196        1430.98093527144     -0.0151387712522072                       0                       0        148278.383608163        135278.212873547                       1                       1                       1 
                    7.9                    0.15     0.00537024683122081        1.13766418096065        1373.72270453888        0.18154562984645       -4496.38733396697        96828.6101725619       -2261.89965537856        296.451392040252        298.406891112301        25.9071125614856                       0                       0                       0                       0                       0                       0                       0        62.6735245042457   -0.000253295656835578     0.00168110034107996   1.83100000867853E-005     0.00647658224258243     0.00314428987457934         1373.9928317574     -0.0152595979887155                       0                       0        153008.938110359        139864.417884075                       1                       1                       1 
                    7.9                    0.15     0.00560373582388259        1.13766443614069        1319.83066386365       0.182431892064374        -4496.3872013396        96828.6101725619       -2239.97705273296        296.451326714161        298.426015325518        25.8482464175897                       0                       0                       0                       0                       0                       0                       0        62.9794748434814   -0.000253802981717363     0.00176934906268747   1.83100000867853E-005     0.00674213718254249      0.0028830624362649        1320.08842907078     -0.0154434038116913                       0                       0        157691.512332154        144404.106698188                       1                       1                       1 
                    7.9                    0.15     0.00583722481654436        1.13766469132074         1265.9386530746       0.183318152814114       -4496.38707017009        96828.6101725619       -2218.05450985973         296.45126138807        298.445139538736        25.7893811677738                       0                       0                       0                       0                       0                       0                       0        63.2854246701871   -0.000254320266201346     0.00185764132618536   1.83100000867853E-005     0.00700769277873654     0.00261937502313087        1266.18404351404     -0.0156284674016646                       0                       0        162374.086553948          148943.7955123                       1                       1                       1 
                    7.9                    0.15     0.00607071380920614          1.137664944445         1213.7659611497       0.184190079716912       -4496.38688309716        96828.6102897884       -2196.44563024025        296.451196588259        298.463986503839         25.730868584287                       0                       0                       0                       0                       0                       0                       0        63.5864264701139   -0.000254455785058561     0.00194415552808554   1.83100000867853E-005      0.0072723044127295     0.00247114326413286        1213.99994857659     -0.0157326171862531                       0                       0        167018.936974388        153446.911639911                       1                       1                       1 
                    7.9                    0.15     0.00630420280186791        1.13766518252363        1174.18630088994       0.184956613736996       -4496.38678176951        96828.6111004095       -2177.15223588967        296.451135640129        298.480803735673        25.6752348912532                       0                       0                       0                       0                       0                       0                       0        63.8510448738296   -0.000254994725189572     0.00203120172023001   1.83100000867853E-005     0.00753022717280243      0.0023491570421669        1174.41178015282     -0.0156423794051081                       0                       0        171387.698927977         157682.36394303                       1                       1                       1 
                    7.9                    0.15     0.00653769179452969        1.13766542060226        1134.60743858534       0.185723096734556       -4496.38678176951        96828.6111004095       -2157.86099475144        296.451074691999        298.497617801018        25.6196354358792                       0                       0                       0                       0                       0                       0                       0         64.115645466046   -0.000255322243152161      0.0021151873581551   1.83100000867853E-005      0.0077881803724494      0.0021365979280404        1134.82408036939     -0.0154958931564796                       0                       0        175756.460881565        161917.816246149                       1                       1                       1 
                    7.9                    0.15     0.00677118078719146        1.13766565868089        1095.02851295156       0.186489583781485       -4496.38677372771        96828.6111647439       -2138.56958272492        296.451013743869        298.514432117669        25.5640332632557                       0                       0                       0                       0                       0                       0                       0        64.3802474718604   -0.000255666540496936     0.00219941589496509   1.83100000867853E-005     0.00804613115627947     0.00193122707229146        1095.23634339262     -0.0153538710307025                       0                       0        180125.222835154        166153.268549268                       1                       1                       1 
                    7.9                    0.15     0.00700466977985323        1.13766589652416        1056.57536289445       0.187245185695849        -4496.3866527658        96828.6120282585       -2119.52019028204        296.450952855994        298.531036830036        25.5086198146525                       0                       0                       0                       0                       0                       0                       0        64.6410917012521   -0.000256192521633226     0.00228691968023655   1.83100000867853E-005     0.00830309901108915     0.00183472784091533        1056.77489405152     -0.0152868230410922                       0                       0        184460.494908471        170356.252891891                       1                       1                       1 
                    7.9                    0.15     0.00723815877251501        1.13766613123159        1026.83550953929        0.18791615618632       -4496.38653903049        96828.6120282585       -2102.36143949495        296.450892770892        298.545993023529        25.4549673614221                       0                       0                       0                       0                       0                       0                       0        64.8727177785985   -0.000256289259707792     0.00237321777406691   1.83100000867853E-005     0.00855273387437366     0.00180810124038613        1027.02782164319     -0.0153088259179625                       0                       0        188536.768480832        174308.141887816                       1                       1                       1 
                    7.9                    0.15     0.00747164776517679        1.13766635337087        997.095900710041       0.188587065407063       -4496.38642529518        96828.6120282585       -2085.20497952956        296.450835903237        298.560949217021        25.4013527131845                       0                       0                       0                       0                       0                       0                       0         65.104323746906   -0.000256413453788078     0.00246009039432897   1.83100000867853E-005     0.00880240801312457     0.00192438491702262         997.28082001868     -0.0153118462746085                       0                       0        192613.042053193         178260.03088374                       1                       1                       1 
                    7.9                    0.15     0.00770513675783856        1.13766657551015         967.35629188079       0.189257974627806       -4496.38631155986        96828.6120282585       -2068.04851956417        296.450779035581        298.575905410513         25.347738064947                       0                       0                       0                       0                       0                       0                       0        65.3359297152135   -0.000256537647868364     0.00254696301459104   1.83100000867853E-005     0.00905208215187547      0.0020406685936591        967.533818394166     -0.0153148666312544                       0                       0        196689.315625555        182211.919879665                       1                       1                       1 
                    7.9                    0.15     0.00793862575050033        1.13766680932712        937.616455850415       0.189928940777285       -4496.38619782455        96828.6120282585       -2050.88993108298        296.450719178436        298.590861604006        25.2940882902198                       0                       0                       0                       0                       0                       0                       0        65.5675543678241   -0.000256636331215145     0.00263330181391642   1.83100000867853E-005      0.0093017197978471     0.00202416726022935        937.786751000907     -0.0153355245867425                       0                       0        200765.589197916        186163.808875589                       1                       1                       1 