VARIABLES = "X"
 "Y"
 "Z"
 "Density"
 "Shear Strain Rate"
 "Mach Number"
 "Pressure"
 "Absolute Pressure"
 "Total Pressure"
 "Temperature"
 "Total Temperature"
 "Aspect Ratio"
 "Bulk Energy Flow Rate"
 "X Bulk Momentum Flow Rate"
 "Y Bulk Momentum Flow Rate"
 "Z Bulk Momentum Flow Rate"
 "X Wall Shear"
 "Y Wall Shear"
 "Z Wall Shear"
 "U"
 "V"
 "W"
 "Dynamic Viscosity"
 "Eddy Viscosity"
 "X Vorticity"
 "Y Vorticity"
 "Z Vorticity"
 "Y Plus"
 "Solver Y Plus"
 "Node UserID"
 "Element UserID"
 "Material ID"
 "Part ID"
 "Property ID"
ZONE
DT=(DOUBLE,DOUBLE,DOUBLE,DOUBLE,DOUBLE,DOUBLE,DOUBLE,DOUBLE,DOUBLE,DOUBLE,DOUBLE,DOUBLE,DOUBLE,DOUBLE,DOUBLE,DOUBLE,DOUBLE,DOUBLE,DOUBLE,DOUBLE,DOUBLE,DOUBLE,DOUBLE,DOUBLE,DOUBLE,DOUBLE,DOUBLE,DOUBLE,DOUBLE,DOUBLE,DOUBLE,DOUBLE,DOUBLE,DOUBLE)
                    7.9                    0.15                       0        1.13731369248265        59982.6583356449   1.00000000362749E-015       -4495.93556202429        96829.0636872858       -4495.93556202429        296.544147102018        296.544147102018        267.114624023438                       0      0.0011022055457513  -1.57297133732178E-008       0.529819527679463         9.3562096907809   -0.000129696840854152  -8.93556978162929E-013                       0                       0                       0   1.83100000867853E-005   8.30755903701596E-005       0.818931592754701        60040.1258632803      0.0019045777807525        8.90790312666622        11.0642499923706        10792.5120656799        10475.5120663554                       1                       1                       1 
                    7.9                    0.15    0.000233488992661775        1.13733366933804        23495.8896179819       0.122980166880161       -4495.93559020322        96829.0636872858       -3470.55292648869        296.538941474304        297.436550176492        204.810723252189                       0                       0                       0                       0                       0                       0                       0        42.4617142814719   -0.000585065945284732   2.78786573194724E-005   1.83100000867853E-005    0.000381568328626173       0.331010167168906        23512.0156348537    -0.00143265034950212                       0                       0        96168.8089190203         83091.257862314                       1                       1                       1 
                    7.9                    0.15    0.000466977985323549        1.13733415034552        12964.4243772853       0.134558992484357       -4495.93559056355        96829.0636872858       -3268.42970114692        296.538818336389        297.613380031996        157.894541712215                       0                       0                       0                       0                       0                       0                       0        46.4595591525691   -0.000641717777367681    0.000100678739307213   1.83100000867853E-005    0.000702418820125371       0.183368243727735        12972.2173537664    -0.00328215168354052                       0                       0        159199.810522598        144219.323512717                       1                       1                       1 
                    7.9                    0.15    0.000700466977985323        1.13733460062942        8981.80492594991       0.141751528875119       -4495.93547923103        96829.0636872858       -3133.61236725602        296.538703063712        297.731259538966        128.653229102698                       0                       0                       0                       0                       0                       0                       0        48.9429350233204   -0.000676413429061141    0.000160997777535839   1.83100000867853E-005      0.0010234148622318       0.121304846107286        8986.83248852903    -0.00389136380612114                       0                       0        209009.162416071        192524.907353787                       1                       1                       1 
                    7.9                    0.15    0.000933955970647098        1.13733509536096        6857.71728533116       0.147028825967199       -4495.93509810053        96829.0636872858       -3030.32251620513        296.538576412437        297.821562020456        108.450471322246                       0                       0                       0                       0                       0                       0                       0        50.7650332134611   -0.000700602851364124    0.000215792408614332   1.83100000867853E-005     0.00134261284432389      0.0858876400355213        6861.37857045726    -0.00466311945534576                       0                       0        250426.747674661        232692.075990761                       1                       1                       1 
                    7.9                    0.15     0.00116744496330887         1.1373355410428        5539.34695493766       0.151206959433332        -4495.9348478708        96829.0636872858       -2945.91961863167        296.538447439681        297.895313735086        93.6331065650832                       0                       0                       0                       0                       0                       0                       0        52.2076154891902   -0.000718063034063126    0.000263028036306292   1.83100000867853E-005      0.0016595972491163      0.0632477580439418        5542.23144040516    -0.00530893750939965                       0                       0        285926.653519304        267120.222773236                       1                       1                       1 
                    7.9                    0.15     0.00140093395597065        1.13733597406535        4668.12824922833       0.154617420450048       -4495.93497961953        96829.0636872858       -2875.15903781569        296.538335824739        297.957148848621        82.5485616830609                       0                       0                       0                       0                       0                       0                       0        53.3851444963192   -0.000731286911454574    0.000329318588522708   1.83100000867853E-005     0.00197399614584011      0.0509556975913725        4670.47109020891    -0.00538304195120677                       0                       0        316648.800160722        296914.853177957                       1                       1                       1 
                    7.9                    0.15     0.00163442294863242        1.13733651767117        4023.12829224507        0.15756032160481       -4495.93486642298        96829.0636872858       -2812.92730164939        296.538196661651        298.011492632156        73.6713351449445                       0                       0                       0                       0                       0                       0                       0        54.4012352943761   -0.000742438204191075    0.000394919281667094   1.83100000867853E-005     0.00228609018943105      0.0421754823249478        4025.10354842877    -0.00542871817474205                       0                       0        344149.142936376        323584.947509812                       1                       1                       1 
                    7.9                    0.15      0.0018679119412942         1.1373370747378        3539.08176512638       0.160118646473924       -4495.93435917578        96829.0636872858       -2757.85295290707        296.538068956632        298.059591047625        66.5432826543606                       0                       0                       0                       0                       0                       0                       0        55.2845395875731   -0.000751734513842776    0.000466535192835586   1.83100000867853E-005     0.00259564440293646       0.034304720879473        3540.77849907835    -0.00591915132939047                       0                       0        368804.520140714        347495.967135696                       1                       1                       1 
                    7.9                    0.15     0.00210140093395597        1.13733746382974        3164.71345297944       0.162375983268004       -4495.93457088467        96829.0636872858       -2708.48658566374        296.537953533992        298.102679798837        60.7226731318146                       0                       0                       0                       0                       0                       0                       0        56.0639275822444    -0.00075932066825188    0.000547837646880554   1.83100000867853E-005      0.0029025911219575      0.0284020991233872        3166.20501487961    -0.00593896292786102                       0                       0        391093.934064688        369112.453039298                       1                       1                       1 
                    7.9                    0.15     0.00233488992661774        1.13733787418695        2861.45505804408       0.164413288407033       -4495.93433893693        96829.0636872858       -2663.35882478695        296.537834515407        298.142064624309        55.8137357388263                       0                       0                       0                       0                       0                       0                       0        56.7673401170574   -0.000765630150728163    0.000616618020020941   1.83100000867853E-005     0.00320713732944803      0.0233904278420954        2862.77929143479    -0.00615373995307212                       0                       0        411568.939269476        388969.308086951                       1                       1                       1 
                    7.9                    0.15     0.00256837891927952        1.13733830398219        2611.23846792127       0.166269544959101       -4495.93411279241        96829.0636872858       -2621.76352990726        296.537724487825        298.178373726237        51.6229948957634                       0                       0                       0                       0                       0                       0                       0        57.4082449087381   -0.000770874364339388    0.000690214138274955   1.83100000867853E-005     0.00350930390272323      0.0197340263518577        2612.41431714911    -0.00606456001276351                       0                       0        430497.204187271        407326.119673418                       1                       1                       1 
                    7.9                    0.15     0.00280186791194129        1.13733884284477        2406.98843009965       0.167951719448998       -4495.93391673896        96829.0636872858       -2583.61063623853        296.537598577766        298.211652760421        48.0876570821737                       0                       0                       0                       0                       0                       0                       0         57.989039487555   -0.000775391754699584    0.000757715678375297   1.83100000867853E-005     0.00380867361087094       0.017352969969929        2408.07521454367    -0.00612103241837047                       0                       0        447884.713153249        424188.691463947                       1                       1                       1 
                    7.9                    0.15     0.00303535690460307        1.13733928164685        2232.46031885249       0.169509388010133       -4495.93358430738        96829.0636872858       -2547.95105983393        296.537480495695        298.242746229861        44.9969922362309                       0                       0                       0                       0                       0                       0                       0        58.5268477109549   -0.000779678841826084    0.000834180302140043   1.83100000867853E-005     0.00410562131704977      0.0146529055105607        2233.45012502275    -0.00628016616107504                       0                       0        464135.829696864        439949.179060484                       1                       1                       1 
                    7.9                    0.15     0.00326884589726484        1.13733969212157        2080.11055565906       0.170967795274141       -4495.93330547261        96829.0636872858       -2514.29619786308        296.537369124144        298.272089747932        42.2474889625614                       0                       0                       0                       0                       0                       0                       0        59.0303832240321   -0.000783301101359612    0.000911806577647366   1.83100000867853E-005     0.00440036572456301      0.0121440752541136        2081.01406699027    -0.00633825720402532                       0                       0        479463.406312723        454814.008839464                       1                       1                       1 
                    7.9                    0.15     0.00350233488992662        1.13734010694673        1944.61224353645       0.172347695331556       -4495.93312674965        96829.0637356632       -2482.23474778764        296.537263117876        298.300045491731        39.7616644259349                       0                       0                       0                       0                       0                       0                       0        59.5068110323071   -0.000786207503052797    0.000987481651307807   1.83100000867853E-005     0.00469324071827925      0.0100438392978133        1945.44562277923    -0.00623693151065909                       0                       0         494052.58181741        468962.730188438                       1                       1                       1 
                    7.9                    0.15     0.00373582388258839         1.1373405270003          1833.007219736       0.173604929995477       -4495.93281503145        96829.0663268384       -2452.69175299899        296.537165705939        298.325810568453        37.6642076480312                       0                       0                       0                       0                       0                       0                       0        59.9408912084629   -0.000788910480850639     0.00105719597056382   1.83100000867853E-005     0.00498261279314408       0.009093882640611         1833.7943301391    -0.00655280236445679                       0                       0        507458.958078273        481964.361565997                       1                       1                       1 
                    7.9                    0.15     0.00396931287525017        1.13734092992704         1730.3632075113       0.174811417299698       -4495.93251496101        96829.0687274026       -2424.20327331568        296.537063836744        298.350641612998        35.7176233907406                       0                       0                       0                       0                       0                       0                       0         60.357448162987   -0.000791424675428137     0.00113213530553669   1.83100000867853E-005     0.00527024093714756     0.00797191069098613         1731.1021137156    -0.00678868613912719                       0                       0        520364.391306213        494480.173619341                       1                       1                       1 
                    7.9                    0.15     0.00420280186791194        1.13734131247999        1638.54072098375       0.175956616272124       -4495.93222895623        96829.0709180112       -2396.98845573569        296.536956584954         298.37434425857        33.9532331324359                       0                       0                       0                       0                       0                       0                       0        60.7528421071229     -0.0007937169184256     0.00121369210862136   1.83100000867853E-005     0.00555576444833198     0.00661703471927222         1639.2289060794    -0.00694779269796329                       0                       0        532664.884588418        506409.309151978                       1                       1                       1 
                    7.9                    0.15     0.00443629086057372          1.137341768472        1558.73378613599       0.177026815479498       -4495.93196053142        96829.0714997858       -2371.34995899926        296.536843694151        298.396663367266        32.3977510654463                       0                       0                       0                       0                       0                       0                       0        61.1223394392437   -0.000795550001881269     0.00129272833576396   1.83100000867853E-005     0.00583819576036931     0.00533674485615728        1559.38246218429    -0.00697150854484061                       0                       0        544209.306052326        517605.199034548                       1                       1                       1 
                    7.9                    0.15     0.00466977985323549        1.13734224751064        1483.02384613486       0.178071439015192       -4495.93169810054        96829.0714997858       -2346.24907970133         296.53672888064         298.41851073811        30.9134994092438                       0                       0                       0                       0                       0                       0                       0        61.4830057011084   -0.000797208420528211     0.00137096348062633   1.83100000867853E-005     0.00611957386640971     0.00406623928411132        1483.63686949459    -0.00693914752011088                       0                       0        555495.933382539        528551.077711077                       1                       1                       1 
                    7.9                    0.15     0.00490326884589727         1.1373426930031        1418.95676980131       0.179035983793972       -4495.93145480234        96829.0714997858       -2322.85024819504        296.536615776676        298.438891878588        29.6375951639971                       0                       0                       0                       0                       0                       0                       0        61.8160236518741   -0.000798407987311465     0.00144914546027748   1.83100000867853E-005     0.00639700403344416     0.00302999865067927        1419.53392610095    -0.00709395083703595                       0                       0        565959.705974611        538698.944025845                       1                       1                       1 
                    7.9                    0.15     0.00513675783855904        1.13734313543541        1356.40095759758       0.179990131916522       -4495.93121398722        96829.0714997858       -2299.67244119537        296.536503275172        298.459082340806        28.3887317091687                       0                       0                       0                       0                       0                       0                       0         62.145452141852   -0.000799531477927086     0.00152734272377295   1.83100000867853E-005      0.0066739230221132     0.00202172732490539        1356.94229638238    -0.00728214142589026                       0                       0        576316.682699066        548743.238691096                       1                       1                       1 
                    7.9                    0.15     0.00537024683122081        1.13734352213276        1303.09010715073       0.180874362996806       -4495.93108491855        96829.0714997858       -2277.99727049148        296.536398358562        298.477955022825        27.3097815444159                       0                       0                       0                       0                       0                       0                       0        62.4507405563704    -0.00080013203136372     0.00160878731246419   1.83100000867853E-005     0.00694672824001369     0.00140615742491084        1303.60617417787     -0.0074116656690483                       0                       0         585942.82368186        558078.761893742                       1                       1                       1 
                    7.9                    0.15     0.00560373582388259        1.13734389981537        1251.31558186027       0.181746972263103       -4495.93098050876        96829.0714997858       -2256.57194066505        296.536294385034        298.496609039363        26.2590668106461                       0                       0                       0                       0                       0                       0                       0        62.7520163239206   -0.000800634253907031      0.0016910318556155   1.83100000867853E-005     0.00721885137955138    0.000866733552699797        1251.80812953916    -0.00752496717281212                       0                       0        595447.517648153        567296.504623148                       1                       1                       1 
                    7.9                    0.15     0.00583722481654436        1.13734430551232        1205.27852192909       0.182571889741721       -4495.93074444977        96829.0714997858       -2236.18216551576        296.536192203839        298.514350956144        25.3162968554267                       0                       0                       0                       0                       0                       0                       0        63.0368255410096   -0.000801152358829982     0.00177202056186339   1.83100000867853E-005      0.0074876339551914    0.000311116557833781        1205.75116308565    -0.00744527017619034                       0                       0        604445.797438485        576023.122061715                       1                       1                       1 
                    7.9                    0.15     0.00607071380920614        1.13734472493566        1162.35731241634       0.183370904315209       -4495.93044629546        96829.0714997858       -2216.35493723156        296.536090789288        298.531597387747        24.4321457790654                       0                       0                       0                       0                       0                       0                       0        63.3126910900714     -0.0008016737818406      0.0018523139316753   1.83100000867853E-005     0.00775460488726818   -0.000244590686025208        1162.81193012505    -0.00725407888707833                       0                       0        613169.071511713        584483.036336732                       1                       1                       1 
                    7.9                    0.15     0.00630420280186791        1.13734513752442        1121.18965150114       0.184153908428202       -4495.93012565957        96829.0714997858       -2196.87895920757        296.535988578767        298.548538247664        23.5817212068161                       0                       0                       0                       0                       0                       0                       0        63.5830287994006   -0.000802074019248133     0.00193439094897027   1.83100000867853E-005     0.00802024232305223   -0.000856654552086715        1121.62657847568    -0.00717096276830502                       0                       0        621719.889472503        592775.701031468                       1                       1                       1 
                    7.9                    0.15     0.00653769179452969        1.13734552386573        1085.55360178775        0.18488640302977       -4495.92975331745        96829.0714997858       -2178.51132247613        296.535883857546        298.564514051709        22.8376791134775                       0                       0                       0                       0                       0                       0                       0        63.8359269119028   -0.000802090753011216     0.00202161282610455   1.83100000867853E-005     0.00828167891939536    -0.00163803136630095        1085.97365701002    -0.00742175314039591                       0                       0        629726.734399993        600540.815497813                       1                       1                       1 
                    7.9                    0.15     0.00677118078719146         1.1373459116937        1049.91748661383       0.185618894100524       -4495.92938097533        96829.0714997858        -2160.1438075317        296.535779136325        298.580489855753         22.093637020139                       0                       0                       0                       0                       0                       0                       0        64.0888239302247   -0.000802111675259089     0.00210870013165057   1.83100000867853E-005     0.00854311760635134    -0.00242749303013891        1050.32066247215    -0.00767888359795791                       0                       0        637733.579327482        608305.929964158                       1                       1                       1 
                    7.9                    0.15     0.00700466977985323        1.13734629134137        1017.99608973151        0.18631417804916        -4495.9291859216        96829.0714997858       -2142.60119518415        296.535679723874        298.595748184999        21.4224193754135                       0                       0                       0                       0                       0                       0                       0        64.3288747346363   -0.000801748533509596     0.00219678130426054   1.83100000867853E-005      0.0088008874202322    -0.00307634570383883         1018.3851962991    -0.00780579716030228                       0                       0        645334.522835789        615677.397368453                       1                       1                       1 
                    7.9                    0.15     0.00723815877251501        1.13734666685085        988.371252289252       0.186986453837946       -4495.92909438298        96829.0714997858       -2125.56876607867        296.535583593446        298.610562951979        20.7962237685662                       0                       0                       0                       0                       0                       0                       0        64.5609817498562   -0.000801132508865414     0.00228566577152503   1.83100000867853E-005     0.00905639286228106     -0.0036448865327862        988.748054848926    -0.00785265151569568                       0                       0        652684.527141436         622805.50154411                       1                       1                       1 
                    7.9                    0.15     0.00747164776517678        1.13734704236034        958.746353953485       0.187658733157545       -4495.92900893371        96829.0714997858       -2108.53620605213        296.535487463019        298.625377718958        20.1700281617189                       0                       0                       0                       0                       0                       0                       0        64.7930900019756   -0.000800534519386673     0.00237427818617677   1.83100000867853E-005     0.00931189577236546    -0.00421180985456488        959.110819774976    -0.00790298143947214                       0                       0        660034.531447082        629933.605719767                       1                       1                       1 
                    7.9                    0.15     0.00770513675783856        1.13734740903445        932.898077766346        0.18828949839566       -4495.92892881073        96829.0714997858       -2092.43299775833        296.535389864129        298.639377205114        19.6192609744273                       0                       0                       0                       0                       0                       0                       0        65.0108643674446   -0.000799740403033148     0.00246333388086867   1.83100000867853E-005      0.0095625598099407     -0.0046703236563806        933.251677141844     -0.0079664109326691                       0                       0        666926.382412913        636617.388423105                       1                       1                       1 
                    7.9                    0.15     0.00793862575050033        1.13734777144431        908.237128550838       0.188907209387231       -4495.92884427295        96829.0714997858       -2076.62209250503        296.535291803594        298.653120008502        19.0922064369905                       0                       0                       0                       0                       0                       0                       0        65.2241313107153   -0.000798870710149256     0.00255263316735668   1.83100000867853E-005     0.00981170572666501     -0.0050986359454228         908.58030162968    -0.00803625209428024                       0                       0        673674.202391607        643161.488503395                       1                       1                       1 