VARIABLES = "X"
 "Y"
 "Z"
 "Density"
 "Shear Strain Rate"
 "Mach Number"
 "Pressure"
 "Absolute Pressure"
 "Total Pressure"
 "Temperature"
 "Total Temperature"
 "Aspect Ratio"
 "Bulk Energy Flow Rate"
 "X Bulk Momentum Flow Rate"
 "Y Bulk Momentum Flow Rate"
 "Z Bulk Momentum Flow Rate"
 "X Wall Shear"
 "Y Wall Shear"
 "Z Wall Shear"
 "U"
 "V"
 "W"
 "Dynamic Viscosity"
 "Eddy Viscosity"
 "X Vorticity"
 "Y Vorticity"
 "Z Vorticity"
 "Y Plus"
 "Solver Y Plus"
 "Node UserID"
 "Element UserID"
 "Material ID"
 "Part ID"
 "Property ID"
ZONE
DT=(DOUBLE,DOUBLE,DOUBLE,DOUBLE,DOUBLE,DOUBLE,DOUBLE,DOUBLE,DOUBLE,DOUBLE,DOUBLE,DOUBLE,DOUBLE,DOUBLE,DOUBLE,DOUBLE,DOUBLE,DOUBLE,DOUBLE,DOUBLE,DOUBLE,DOUBLE,DOUBLE,DOUBLE,DOUBLE,DOUBLE,DOUBLE,DOUBLE,DOUBLE,DOUBLE,DOUBLE,DOUBLE,DOUBLE,DOUBLE)
                    7.9                    0.15                       0        1.13731369248265        59982.6583356449   1.00000000362749E-015       -4495.93556202429        96829.0636872858       -4495.93556202429        296.544147102018        296.544147102018        267.114624023438                       0      0.0011022055457513  -1.57297133732178E-008       0.529819527679463         9.3562096907809   -0.000129696840854152  -8.93556978162929E-013                       0                       0                       0   1.83100000867853E-005   8.30755903701596E-005       0.818931592754701        60040.1258632803      0.0019045777807525        8.90790312666622        11.0642499923706        10792.5120656799        10475.5120663554                       1                       1                       1 
                    7.9                    0.15   1.00033344448149E-006        1.13731408481197        59982.6626730247     0.00207910063968254       -4495.93556202429        96829.0636872858       -4481.28820956558        296.544044834047        296.556867100691        267.114624023437                       0     0.00108015405289505  -1.54149875031379E-008       0.519219620010851        9.16902284192551   -0.000127101826173514  -8.75088077990135E-013        0.71785712577681  -9.90653832555978E-006  -7.25280632710909E-008   1.83100000867853E-005   8.41925115801566E-005       0.818931592754701        60040.1258632803      0.0019045777807525        8.72968553186072        10.8428912167751        11212.6520924065        10679.2399659819                       1                       1                       1 
                    7.9                    0.15   2.00066688896299E-006        1.13731447714129        59982.6670104078     0.00415820127934018       -4495.93556202429        96829.0636872858       -4466.64085710711        296.543942566076        296.569587099364        267.114624023438                       0      0.0010581025600378  -1.51002622088071E-008       0.508619712342249        8.98183599306947   -0.000124506815812732  -8.56618688532472E-013        1.43571425154589  -1.98130603726013E-005  -1.45063922712704E-007   1.83100000867853E-005   8.53094327900995E-005       0.818931592754701        60040.1258632803      0.0019045777807525        8.55146793705489        10.6215324411797        11632.7921191332        10882.9678656085                       1                       1                       1 
                    7.9                    0.15   3.00100033344448E-006        1.13731486947061        59982.6713477909     0.00623730191899782       -4495.93556202429        96829.0636872858       -4451.99350464865        296.543840298104        296.582307098037        267.114624023438                       0     0.00103605106718054  -1.47855369144762E-008       0.498019804673647        8.79464914421344    -0.00012191180545195  -8.38149299074809E-013        2.15357137731497  -2.97195824196428E-005  -2.17599782154317E-007   1.83100000867853E-005   8.64263540000425E-005       0.818931592754701        60040.1258632803      0.0019045777807525        8.37325034224906        10.4001736655842        12052.9321458598         11086.695765235                       1                       1                       1 
                    7.9                    0.15   4.00133377792597E-006        1.13731526179993         59982.675685174     0.00831640255865546       -4495.93556202429        96829.0636872858       -4437.34615219018        296.543738030133         296.59502709671        267.114624023437                       0     0.00101399957432329  -1.44708116201454E-008       0.487419897005045         8.6074622953574   -0.000119316795091169  -8.19679909617145E-013        2.87142850308405  -3.96261044666843E-005  -2.90135641595929E-007   1.83100000867853E-005   8.75432752099854E-005       0.818931592754701        60040.1258632803      0.0019045777807525        8.19503274744323        10.1788148899887        12473.0721725864        11290.4236648616                       1                       1                       1 
                    7.9                    0.15   5.00166722240747E-006        1.13731565412926        59982.6800225571      0.0103955031983131       -4495.93556202429        96829.0636872858       -4422.69879973172        296.543635762162        296.607747095383        267.114624023438                       0    0.000991948081466038  -1.41560863258145E-008       0.476819989336443        8.42027544650136   -0.000116721784730387  -8.01210520159482E-013        3.58928562885313  -4.95326265137258E-005  -3.62671501037543E-007   1.83100000867853E-005   8.86601964199283E-005       0.818931592754701        60040.1258632803      0.0019045777807525         8.0168151526374        9.95745611439325        12893.2121993131        11494.1515644881                       1                       1                       1 
                    7.9                    0.15   6.00200066688896E-006        1.13731604645858        59982.6843599401      0.0124746038379707       -4495.93556202429        96829.0636872858       -4408.05144727325        296.543533494191        296.620467094055        267.114624023437                       0    0.000969896588608785  -1.38413610314837E-008       0.466220081667841        8.23308859764533   -0.000114126774369605  -7.82741130701819E-013        4.30714275462221  -5.94391485607673E-005  -4.35207360479155E-007   1.83100000867853E-005   8.97771176298712E-005       0.818931592754701        60040.1258632803      0.0019045777807525        7.83859755783157        9.73609733879778        13313.3522260397        11697.8794641146                       1                       1                       1 
                    7.9                    0.15   7.00233411137046E-006         1.1373164387879        59982.6886973232      0.0145537044776284       -4495.93556202429        96829.0636872858       -4393.40409481479         296.54343122622        296.633187092728        267.114624023437                       0    0.000947845095751532  -1.35266357371528E-008       0.455620173999239        8.04590174878929   -0.000111531764008824  -7.64271741244156E-013        5.02499988039128  -6.93456706078088E-005  -5.07743219920768E-007   1.83100000867853E-005   9.08940388398142E-005       0.818931592754701        60040.1258632803      0.0019045777807525        7.66037996302574        9.51473856320231        13733.4922527664        11901.6073637412                       1                       1                       1 
                    7.9                    0.15   8.00266755585195E-006        1.13731683111722        59982.6930347063       0.016632805117286       -4495.93556202429        96829.0636872858       -4378.75674235633        296.543328958248        296.645907091401        267.114624023437                       0    0.000925793602894279   -1.3211910442822E-008       0.445020266330637        7.85871489993325   -0.000108936753648042  -7.45802351786492E-013        5.74285700616036  -7.92521926548502E-005  -5.80279079362381E-007   1.83100000867853E-005   9.20109600497571E-005       0.818931592754701        60040.1258632803      0.0019045777807525        7.48216236821991        9.29337978760684         14153.632279493        12105.3352633677                       1                       1                       1 
                    7.9                    0.15   9.00300100033344E-006        1.13731722344654        59982.6973720894      0.0187119057569436       -4495.93556202429        96829.0636872858       -4364.10938989786        296.543226690277        296.658627090074        267.114624023437                       0    0.000903742110037027  -1.28971851484911E-008       0.434420358662035        7.67152805107722    -0.00010634174328726  -7.27332962328829E-013        6.46071413192944  -8.91587147018917E-005  -6.52814938803994E-007   1.83100000867853E-005   9.31278812597001E-005       0.818931592754701        60040.1258632803      0.0019045777807525        7.30394477341408        9.07202101201137        14573.7723062197        12309.0631629943                       1                       1                       1 
                    7.9                    0.15   1.00033344448149E-005        1.13731761577586        59982.7017094725      0.0207910063966013       -4495.93556202429        96829.0636872858        -4349.4620374394        296.543124422306        296.671347088747        267.114624023437                       0    0.000881690617179774  -1.25824598541603E-008       0.423820450993433        7.48434120222118   -0.000103746732926478  -7.08863572871166E-013        7.17857125769852  -9.90652367489332E-005  -7.25350798245607E-007   1.83100000867853E-005    9.4244802469643E-005       0.818931592754701        60040.1258632803      0.0019045777807525        7.12572717860825         8.8506622364159        14993.9123329463        12512.7910626208                       1                       1                       1 
                    7.9                    0.15   1.10036678892964E-005        1.13731800810518        59982.7060468556      0.0228701070362589       -4495.93556202429        96829.0636872858       -4334.81468498093        296.543022154335         296.68406708742        267.114624023438                       0    0.000859639124322521  -1.22677345598294E-008       0.413220543324831        7.29715435336515   -0.000101151722565697  -6.90394183413503E-013         7.8964283834676   -0.000108971758795975   -7.9788665768722E-007   1.83100000867853E-005   9.53617236795859E-005       0.818931592754701        60040.1258632803      0.0019045777807525        6.94750958380242        8.62930346082042         15414.052359673        12716.5189622474                       1                       1                       1 
                    7.9                    0.15   1.20040013337779E-005         1.1373184004345        59982.7103842387      0.0249492076759166       -4495.93556202429        96829.0636872858       -4320.16733252247        296.542919886364        296.696787086093        267.114624023437                       0    0.000837587631465268  -1.19530092654986E-008       0.402620635656229        7.10996750450911  -9.85567122049151E-005   -6.7192479395584E-013        8.61428550923668   -0.000118878280843016  -8.70422517128833E-007   1.83100000867853E-005   9.64786448895289E-005       0.818931592754701        60040.1258632803      0.0019045777807525        6.76929198899659        8.40794468522495        15834.1923863996        12920.2468618739                       1                       1                       1 
                    7.9                    0.15   1.30043347782594E-005        1.13731879276382        59982.7147216218      0.0270283083155742       -4495.93556202429        96829.0636872858         -4305.519980064        296.542817618393        296.709507084766        267.114624023438                       0    0.000815536138608016  -1.16382839711678E-008       0.392020727987627        6.92278065565307  -9.59617018441335E-005  -6.53455404498177E-013        9.33214263500576   -0.000128784802890058  -9.42958376570446E-007   1.83100000867853E-005   9.75955660994718E-005       0.818931592754701        60040.1258632803      0.0019045777807525        6.59107439419076        8.18658590962948        16254.3324131263        13123.9747615005                       1                       1                       1 
                    7.9                    0.15   1.40046682227409E-005        1.13731918509314        59982.7190590048      0.0291074089552318       -4495.93556202429        96829.0636872858       -4290.87262760554        296.542715350421        296.722227083439        267.114624023438                       0    0.000793484645750763  -1.13235586768369E-008       0.381420820319025        6.73559380679704  -9.33666914833518E-005  -6.34986015040513E-013        10.0499997607748   -0.000138691324937099  -1.01549423601206E-006   1.83100000867853E-005   9.87124873094148E-005       0.818931592754701        60040.1258632803      0.0019045777807525        6.41285679938493        7.96522713403401        16674.4724398529         13327.702661127                       1                       1                       1 
                    7.9                    0.15   1.50050016672224E-005        1.13731957742246        59982.7233963879      0.0311865095948895       -4495.93556202429        96829.0636872858       -4276.22527514707         296.54261308245        296.734947082112        267.114624023437                       0     0.00077143315289351  -1.10088333825061E-008       0.370820912650423          6.548406957941  -9.07716811225701E-005   -6.1651662558285E-013        10.7678568865439   -0.000148597846984141  -1.08803009545367E-006   1.83100000867853E-005   9.98294085193577E-005       0.818931592754701        60040.1258632803      0.0019045777807525         6.2346392045791        7.74386835843854        17094.6124665796        13531.4305607536                       1                       1                       1 
                    7.9                    0.15   1.60053351117039E-005        1.13731996975178         59982.727733771      0.0332656102345471       -4495.93556202429        96829.0636872858       -4261.57792268861        296.542510814479        296.747667080785        267.114624023437                       0    0.000749381660036257  -1.06941080881752E-008       0.360221004981821        6.36122010908496  -8.81766707617884E-005  -5.98047236125187E-013         11.485714012313   -0.000158504369031182  -1.16056595489528E-006   1.83100000867853E-005    0.000100946329729301       0.818931592754701        60040.1258632803      0.0019045777807525        6.05642160977327        7.52250958284307        17514.7524933062        13735.1584603801                       1                       1                       1 
                    7.9                    0.15   1.70056685561854E-005         1.1373203620811        59982.7320711541      0.0353447108742048       -4495.93556202429        96829.0636872858       -4246.93057023014        296.542408546508        296.760387079458        267.114624023438                       0    0.000727330167179005  -1.03793827938444E-008       0.349621097313219        6.17403326022893  -8.55816604010068E-005  -5.79577846667524E-013        12.2035711380821   -0.000168410891078224   -1.2331018143369E-006   1.83100000867853E-005    0.000102063250939244       0.818931592754701        60040.1258632803      0.0019045777807525        5.87820401496745         7.3011508072476        17934.8925200329        13938.8863600066                       1                       1                       1 
                    7.9                    0.15   1.80060020006669E-005        1.13732075441042        59982.7364085372      0.0374238115138624       -4495.93556202429        96829.0636872858       -4232.28321777168        296.542306278537        296.773107078131        267.114624023438                       0    0.000705278674321752  -1.00646574995135E-008       0.339021189644617        5.98684641137289  -8.29866500402251E-005  -5.61108457209861E-013        12.9214282638512   -0.000178317413125265  -1.30563767377851E-006   1.83100000867853E-005    0.000103180172149187       0.818931592754701        60040.1258632803      0.0019045777807525        5.69998642016162        7.07979203165213        18355.0325467595        14142.6142596332                       1                       1                       1 
                    7.9                    0.15   1.90063354451484E-005        1.13732114673974        59982.7407459203        0.03950291215352       -4495.93556202429        96829.0636872858       -4217.63586531322        296.542204010565        296.785827076804        267.114624023438                       0    0.000683227181464499  -9.74993220518268E-009       0.328421281976015        5.79965956251686  -8.03916396794434E-005  -5.42639067752197E-013        13.6392853896202   -0.000188223935172307  -1.37817353322012E-006   1.83100000867853E-005    0.000104297093359129       0.818931592754701        60040.1258632803      0.0019045777807525        5.52176882535579        6.85843325605666        18775.1725734862        14346.3421592597                       1                       1                       1 
                    7.9                    0.15   2.00066688896299E-005        1.13732153906906        59982.7450833034      0.0415820127931777       -4495.93556202429        96829.0636872858       -4202.98851285475        296.542101742594        296.798547075477        267.114624023438                       0    0.000661175688607246  -9.43520691085184E-009       0.317821374307412        5.61247271366082  -7.77966293186617E-005  -5.24169678294534E-013        14.3571425153893   -0.000198130457219348  -1.45070939266174E-006   1.83100000867853E-005    0.000105414014569072       0.818931592754701        60040.1258632803      0.0019045777807525        5.34355123054996        6.63707448046119        19195.3126002128        14550.0700588863                       1                       1                       1 
                    7.9                    0.15   2.10070023341114E-005        1.13732193139838        59982.7494206865      0.0436611134328353       -4495.93556202429        96829.0636872858       -4188.34116039629        296.541999474623         296.81126707415        267.114624023438                       0    0.000639124195749994  -9.12048161652099E-009        0.30722146663881        5.42528586480478  -7.52016189578801E-005  -5.05700288836871E-013        15.0749996411584    -0.00020803697926639  -1.52324525210335E-006   1.83100000867853E-005    0.000106530935779015       0.818931592754701        60040.1258632803      0.0019045777807525        5.16533363574413        6.41571570486572        19615.4526269394        14753.7979585128                       1                       1                       1 
                    7.9                    0.15   2.20073357785929E-005         1.1373223237277        59982.7537580696      0.0457402140724929       -4495.93556202429        96829.0636872858       -4173.69380793782        296.541897206652        296.823987072822        267.114624023438                       0    0.000617072702892741  -8.80575632219015E-009       0.296621558970208        5.23809901594875  -7.26066085970984E-005  -4.87230899379208E-013        15.7928567669275   -0.000217943501313431  -1.59578111154496E-006   1.83100000867853E-005    0.000107647856988958       0.818931592754701        60040.1258632803      0.0019045777807525         4.9871160409383        6.19435692927025        20035.5926536661        14957.5258581394                       1                       1                       1 
                    7.9                    0.15   2.30076692230744E-005        1.13732271605702        59982.7580954526      0.0478193147121506       -4495.93556202429        96829.0636872858       -4159.04645547936        296.541794938681        296.836707071495        267.114624023438                       0    0.000595021210035488   -8.4910310278593E-009       0.286021651301606        5.05091216709271  -7.00115982363167E-005  -4.68761509921545E-013        16.5107138926966   -0.000227850023360473  -1.66831697098657E-006   1.83100000867853E-005    0.000108764778198901       0.818931592754701        60040.1258632803      0.0019045777807525        4.80889844613247        5.97299815367477        20455.7326803927        15161.2537577659                       1                       1                       1 
                    7.9                    0.15   2.40080026675559E-005        1.13732310838634        59982.7624328357      0.0498984153518082       -4495.93556202429        96829.0636872858       -4144.39910302089        296.541692670709        296.849427070168        267.114624023438                       0    0.000572969717178235  -8.17630573352845E-009       0.275421743633004        4.86372531823667   -6.7416587875535E-005  -4.50292120463881E-013        17.2285710184656   -0.000237756545407514  -1.74085283042819E-006   1.83100000867853E-005    0.000109881699408844       0.818931592754701        60040.1258632803      0.0019045777807525        4.63068085132664         5.7516393780793        20875.8727071194        15364.9816573925                       1                       1                       1 
                    7.9                    0.15   2.50083361120374E-005        1.13732350146893        59982.7673872935      0.0519774766333686       -4495.93556202429        96829.0636872858       -4129.75233061265        296.541590209902        296.862146490334        267.114624023438                       0    0.000550919047468988  -7.86224309016633E-009       0.264821438617104        4.67654526684418  -6.48268682084471E-005   -4.4682245450762E-013        17.9464146457255    -0.00024764644964846  -1.63669259597294E-006   1.83100000867853E-005    0.000110998607193898       0.818931592754701        60040.1258632803      0.0019045777807525        4.45246667333094        5.53028060248383         21296.012733846         15568.709557019                       1                       1                       1 
                    7.9                    0.15   2.60086695565188E-005        1.13732389453164        59982.7723254722      0.0540565389532413       -4495.93556202429        96829.0636872858       -4115.10554290201        296.541487754183        296.874865925761        267.114624023438                       0    0.000528868356044138  -7.54816296530049E-009       0.254221144083688        4.48936503612669  -6.22370089667024E-005  -4.42957078389245E-013        18.6642586290918   -0.000257536792286471  -1.53719381010734E-006   1.83100000867853E-005    0.000112115515333116       0.818931592754701        60040.1258632803      0.0019045777807525        4.27425240519582        5.30892182688836        21716.1527605727        15772.4374566456                       1                       1                       1 
                    7.9                    0.15   2.70090030010003E-005        1.13732428686096        59982.7766628553      0.0561356395928989       -4495.93556202429        96829.0636872858       -4100.45819044355        296.541385486211        296.887585924434        267.114624023438                       0    0.000506816863186886  -7.23343767096964E-009       0.243621236415086        4.30217818727065  -5.96419986059207E-005  -4.24487688931582E-013        19.3821157548609   -0.000267443314333512  -1.60972966954895E-006   1.83100000867853E-005    0.000113232436543059       0.818931592754701        60040.1258632803      0.0019045777807525        4.09603481038999        5.08756305129289        22136.2927872993        15976.1653562721                       1                       1                       1 
                    7.9                    0.15   2.80093364454818E-005        1.13732467919028        59982.7810002383      0.0582147402325566       -4495.93556202429        96829.0636872858       -4085.81083798508         296.54128321824        296.900305923107        267.114624023438                       0    0.000484765370329633  -6.91871237663879E-009       0.233021328746484        4.11499133841462   -5.7046988245139E-005  -4.06018299473919E-013          20.09997288063   -0.000277349836380554  -1.68226552899056E-006   1.83100000867853E-005    0.000114349357753002       0.818931592754701        60040.1258632803      0.0019045777807525        3.91781721558416        4.86620427569742         22556.432814026        16179.8932558986                       1                       1                       1 
                    7.9                    0.15   2.90096698899633E-005         1.1373250715196        59982.7853376214      0.0602938408722142       -4495.93556202429        96829.0636872858       -4071.16348552662        296.541180950269         296.91302592178        267.114624023438                       0     0.00046271387747238  -6.60398708230795E-009       0.222421421077882        3.92780448955858  -5.44519778843574E-005  -3.87548910016256E-013        20.8178300063991   -0.000287256358427595  -1.75480138843217E-006   1.83100000867853E-005    0.000115466278962944       0.818931592754701        60040.1258632803      0.0019045777807525        3.73959962077833        4.64484550010195        22976.5728407526        16383.6211555252                       1                       1                       1 
                    7.9                    0.15   3.00100033344448E-005        1.13732546384892        59982.7896750045      0.0623729415118719       -4495.93556202429        96829.0636872858       -4056.51613306815        296.541078682298        296.925745920453        267.114624023438                       0    0.000440662384615127  -6.28926178797711E-009        0.21182151340928        3.74061764070254  -5.18569675235757E-005  -3.69079520558593E-013        21.5356871321682   -0.000297162880474637  -1.82733724787379E-006   1.83100000867853E-005    0.000116583200172887       0.818931592754701        60040.1258632803      0.0019045777807525         3.5613820259725        4.42348672450648        23396.7128674793        16587.3490551517                       1                       1                       1 
                    7.9                    0.15   3.10103367789263E-005        1.13732585617824        59982.7940123876      0.0644520421515295       -4495.93556202429        96829.0636872858       -4041.86878060969        296.540976414327        296.938465919126        267.114624023438                       0    0.000418610891757875  -5.97453649364626E-009       0.201221605740678        3.55343079184651   -4.9261957162794E-005  -3.50610131100929E-013        22.2535442579372   -0.000307069402521678   -1.8998731073154E-006   1.83100000867853E-005     0.00011770012138283       0.818931592754701        60040.1258632803      0.0019045777807525        3.38316443116667        4.20212794891101        23816.8528942059        16791.0769547783                       1                       1                       1 
                    7.9                    0.15   3.20106702234078E-005        1.13732624850756        59982.7983497707      0.0665311427911871       -4495.93556202429        96829.0636872858       -4027.22142815122        296.540874146356        296.951185917799        267.114624023438                       0    0.000396559398900622  -5.65981119931541E-009       0.190621698072076        3.36624394299047  -4.66669468020124E-005  -3.32140741643266E-013        22.9714013837063    -0.00031697592456872  -1.97240896675701E-006   1.83100000867853E-005    0.000118817042592773       0.818931592754701        60040.1258632803      0.0019045777807525        3.20494683636084        3.98076917331554        24236.9929209326        16994.8048544048                       1                       1                       1 
                    7.9                    0.15   3.30110036678893E-005        1.13732664083689        59982.8026871538      0.0686102434308447       -4495.93556202429        96829.0636872858       -4012.57407569276        296.540771878384        296.963905916471        267.114624023438                       0    0.000374507906043369  -5.34508590498457E-009       0.180021790403474        3.17905709413444  -4.40719364412307E-005  -3.13671352185603E-013        23.6892585094754   -0.000326882446615761  -2.04494482619863E-006   1.83100000867853E-005    0.000119933963802716       0.818931592754701        60040.1258632803      0.0019045777807525        3.02672924155501        3.75941039772006        24657.1329476592        17198.5327540314                       1                       1                       1 
                    7.9                    0.15   3.40113371123708E-005        1.13732703316621        59982.8070245369      0.0706893440705024       -4495.93556202429        96829.0636872858       -3997.92672323429        296.540669610413        296.976625915144        267.114624023438                       0    0.000352456413186116  -5.03036061065372E-009       0.169421882734871         2.9918702452784   -4.1476926080449E-005   -2.9520196272794E-013        24.4071156352445   -0.000336788968662803  -2.11748068564024E-006   1.83100000867853E-005    0.000121050885012659       0.818931592754701        60040.1258632803      0.0019045777807525        2.84851164674918        3.53805162212459        25077.2729743859        17402.2606536579                       1                       1                       1 