VARIABLES = "X"
 "Y"
 "Z"
 "Density"
 "Shear Strain Rate"
 "Mach Number"
 "Pressure"
 "Absolute Pressure"
 "Total Pressure"
 "Temperature"
 "Total Temperature"
 "Aspect Ratio"
 "Bulk Energy Flow Rate"
 "X Bulk Momentum Flow Rate"
 "Y Bulk Momentum Flow Rate"
 "Z Bulk Momentum Flow Rate"
 "X Wall Shear"
 "Y Wall Shear"
 "Z Wall Shear"
 "U"
 "V"
 "W"
 "Dynamic Viscosity"
 "Eddy Viscosity"
 "X Vorticity"
 "Y Vorticity"
 "Z Vorticity"
 "Y Plus"
 "Solver Y Plus"
 "Node UserID"
 "Element UserID"
 "Material ID"
 "Part ID"
 "Property ID"
ZONE
DT=(DOUBLE,DOUBLE,DOUBLE,DOUBLE,DOUBLE,DOUBLE,DOUBLE,DOUBLE,DOUBLE,DOUBLE,DOUBLE,DOUBLE,DOUBLE,DOUBLE,DOUBLE,DOUBLE,DOUBLE,DOUBLE,DOUBLE,DOUBLE,DOUBLE,DOUBLE,DOUBLE,DOUBLE,DOUBLE,DOUBLE,DOUBLE,DOUBLE,DOUBLE,DOUBLE,DOUBLE,DOUBLE,DOUBLE,DOUBLE)
 -1.98982432252694E-019                    0.15                       0        1.15893173217773        148096.500000048       0.176362499594819       -4043.96582031217            99201.953125   8.24669554866375E-010        298.144134521484                     300        267.111846923828                       0     0.00161647086499445  -1.47772428683854E-010       0.238157033920223        27.4472312928032  -2.47529180195536E-006                       0         61.057773590133                       0                       0   1.83100000867853E-005     0.00186892237979908     0.00177600434408977        148293.484374768    0.000255789078813798        15.2680921554784        11.0845079421997        10200.9995946884        9884.49959536391                       1                       1                       1 
    0.00400200100050025                    0.15                       0        1.15323954852705        146542.965545907       0.123515509617266       -4058.55267955569        98611.7623856284       -1226.36046001821        297.829551598877        299.129307334289        267.111846923828                       0     0.00191337533459243  -9.45443055977634E-011        0.31124257016896        25.8554039601286  -1.29308376369313E-006                       0         42.761823167664                       0                       0   1.83100000867853E-005     0.00133383380049234     0.00177600434408977        148293.484374768    0.000255789078813798        14.8033351176024        11.0836183453874        10201.2992445011        9884.64942027028                       1                       1                       1 
     0.0080040020010005                    0.15                       0        1.14754736487636        144989.431091767       0.070668519639712       -4073.13953879921        98021.5716462568       -2452.72092003724         297.51496867627        298.258614668577        267.111846923828                       0     0.00221027980419041  -4.13161825116732E-011       0.384328106417698         24.263576627454  -1.10875725430911E-007                       0        24.4658727451949                       0                       0   1.83100000867853E-005     0.00079874522118561     0.00177600434408977        148293.484374768    0.000255789078813798        14.3385780797263        11.0827287485751        10201.5988943139        9884.79924517665                       1                       1                       1 
     0.0120060030015008                    0.15                       0        1.14185518122568        143435.896637627      0.0178215296621583       -4087.72639804273        97431.3809068852       -3679.08138005627        297.200385753662        297.387922002865        267.111846923828                       0     0.00250718427378839    1.1911940574417E-011       0.457413642666435        22.6717492947794   1.07133231283131E-006                       0        6.16992232272591                       0                       0   1.83100000867853E-005    0.000263656641878877     0.00177600434408977        148293.484374768    0.000255789078813798        13.8738210418502        11.0818391517628        10201.8985441266        9884.94907008302                       1                       1                       1 
      0.016008004002001                    0.15                       0        1.14006984922328        140209.163494195   1.00000000362749E-015       -4095.46895302166        97229.5292809598       -4095.46895302166        297.050722393361        297.050722393361        267.111846923828                       0     0.00255350967518557    8.5913237543578E-011       0.482393613207315        21.6781701592061    1.7511850473125E-006                       0                       0                       0                       0   1.83100000867853E-005   8.32056016917243E-005   -0.000508548882956072        144165.892187932   -0.000457350112452682        13.5724450781419        11.0810648989445        10202.1981939393        9885.19819461486                       1                       1                       1 
     0.0200100050025013                    0.15                       0         1.1402723875274        136131.079367737   1.00000000362749E-015       -4099.72901354299        97225.2709761991       -4099.72901354299         296.98497281592         296.98497281592        267.111846923828                       0     0.00247233632979156   1.70484080920951E-010        0.48289668156207        20.9889895354033   2.17542926919139E-006                       0                       0                       0                       0   1.83100000867853E-005   8.31999679532785E-005    -0.00395551801830801        137938.113281849    -0.00153334509147954         13.354200089285        11.0803493350454        10202.4978437521         9885.4978444276                       1                       1                       1 
     0.0240120060030015                    0.15                       0        1.14047492583152         132052.99524128   1.00000000362749E-015       -4103.98907406431        97221.0126714384       -4103.98907406431        296.919223238479        296.919223238479        267.111846923828                       0     0.00239116298439754   2.55054924298324E-010       0.483399749916824        20.2998089116004   2.59967349107029E-006                       0                       0                       0                       0   1.83100000867853E-005   8.31943342148328E-005    -0.00740248715365995        131710.334375766    -0.00260934007050639        13.1359551004281        11.0796337711462        10202.7974935648        9885.79749424034                       1                       1                       1 
     0.0280140070035018                    0.15                       0        1.14064454326008        127997.675687052   1.00000000362749E-015       -4107.54309741755        97217.4593083266       -4107.54309741755        296.864205564116        296.864205564116        267.111849900778                       0     0.00232225844936407   3.58564744356193E-010       0.483819152616472        19.7148031005073   3.30023923843523E-006                       0                       0                       0                       0   1.83100000867853E-005   8.31890404515487E-005     -0.0111062173149154        126244.044836334    -0.00290816630056984        12.9489593362952        11.0789581169661        10203.0971433844        9886.09714405988                       1                       1                       1 
      0.032016008004002                    0.15                       0        1.14074595530338        123989.519715128   1.00000000362749E-015       -4109.63435477698        97215.3664415198       -4109.63435477698        296.831422218975        296.831422218975        267.111859045365                       0     0.00227877240415531   5.01312603081909E-010        0.48406521702656        19.3456263987944   4.57329211329925E-006                       0                       0                       0                       0   1.83100000867853E-005   8.31844510474252E-005     -0.0153419176629427        122355.407009772     -0.0015968424577577        12.8267056356791        11.0783651476393         10203.396793218        9886.39679389351                       1                       1                       1 
     0.0360180090045022                    0.15                       0        1.14084736734667        119981.363743204   1.00000000362749E-015       -4111.72561213642         97213.273574713       -4111.72561213642        296.798638873834        296.798638873834        267.111868189953                       0     0.00223528635894654   6.44060461807626E-010       0.484311281436649        18.9764496970815   5.84634498816329E-006                       0                       0                       0                       0   1.83100000867853E-005   8.31798616433016E-005       -0.01957761801097        118466.769183209   -0.000285518614945553         12.704451935063        11.0777721783126        10203.6964430516        9886.69644372715                       1                       1                       1 
     0.0400200100050025                    0.15                       0        1.14094877938997         115973.20777128   1.00000000362749E-015       -4113.81686949585        97211.1807079063       -4113.81686949585        296.765855528693        296.765855528693         267.11187733454                       0     0.00219180031373777   7.86808320533343E-010       0.484557345846737        18.6072729953686   7.11939786302732E-006                       0                       0                       0                       0   1.83100000867853E-005   8.31752722391781E-005     -0.0238133183589973        114578.131356647     0.00102580522786659         12.582198234447        11.0771792089858        10203.9960928853        9886.99609356078                       1                       1                       1 
     0.0440220110055028                    0.15                       0        1.14100941577122        113642.763101819   1.00000000362749E-015       -4114.91151917386        97210.0873408515       -4114.91151917386        296.746746257519        296.746746257519        267.111877441406                       0     0.00216283329020011   7.98048049298256E-010        0.48468607873696        18.3613798748372   7.08395047833611E-006                       0                       0                       0                       0   1.83100000867853E-005   8.31719843108582E-005     -0.0243342925041279        112504.168633907     0.00119729322042009        12.4984870347654         11.076740445828        10204.2957426776        9887.29574335311                       1                       1                       1 
      0.048024012006003                    0.15                       0        1.14106957000056        111332.156533879   1.00000000362749E-015       -4115.99438446167        97209.0057923841       -4115.99438446167        296.727798675466        296.727798675466        267.111877441406                       0      0.0021340379468684   8.07733040629483E-010       0.484813424240281        18.1169445213196   7.03303371748003E-006                       0                       0                       0                       0   1.83100000867853E-005   8.31687117718422E-005     -0.0248113497680027        110451.663541359     0.00135530743323119        12.4152315809827        11.0763035060814        10204.5953924694        9887.59539314495                       1                       1                       1 
     0.0520260130065033                    0.15                       0         1.1411297242299        109021.549965939   1.00000000362749E-015       -4117.07724974947        97207.9242439166       -4117.07724974947        296.708851093414        296.708851093414        267.111877441406                       0     0.00210524260353669    8.1741803196071E-010       0.484940769743602         17.872509167802   6.98211695662395E-006                       0                       0                       0                       0   1.83100000867853E-005   8.31654392328262E-005     -0.0252884070318774        108399.158448811      0.0015133216460423           12.3319761272        11.0758665663348        10204.8950422613        9887.89504293679                       1                       1                       1 
     0.0560280140070035                    0.15                       0        1.14117459833545        107325.327862497   1.00000000362749E-015       -4118.05666008638         97206.944816726       -4118.05666008638        296.694196272591        296.694196272591        267.111877441406                       0     0.00208130542599853   7.51150359608508E-010        0.48505610279044        17.6693179616664   6.62822696306608E-006                       0                       0                       0                       0   1.83100000867853E-005   8.31627941216014E-005     -0.0261250070934599        106863.332145996     0.00189969488756759        12.2619262355121        11.0755070272761        10205.1946920531        9888.19469272864                       1                       1                       1 
     0.0600300150075038                    0.15                       0         1.1412112838423        105958.353604279   1.00000000362749E-015       -4118.98062904902        97206.0201161965       -4118.98062904902        296.681841936996        296.681841936996        267.111877441406                       0     0.00205997173325201    6.4417996270053E-010       0.485164998377221        17.4882294410511   6.11197493980499E-006                       0                       0                       0                       0   1.83100000867853E-005   8.31604852483049E-005     -0.0271542909659508        105604.393342807     0.00240844791056602        12.1989531875598        11.0751889671466         10205.494341845        9888.49434252048                       1                       1                       1 
      0.064032016008004                    0.15                       0        1.14124796934915        104591.379346061   1.00000000362749E-015       -4119.90459801166         97205.095415667       -4119.90459801166        296.669487601401        296.669487601401        267.111877441406                       0     0.00203863804050549   5.37209565792551E-010       0.485273893964001        17.3071409204357   5.59572291654389E-006                       0                       0                       0                       0   1.83100000867853E-005   8.31581763750085E-005     -0.0281835748384417        104345.454539619     0.00291720093356445        12.1359801396076        11.0748709070172        10205.7939916368        9888.79399231232                       1                       1                       1 
     0.0680340170085043                    0.15                       0        1.14128051790866        103357.394443398   1.00000000362749E-015       -4120.80767287611        97204.1920225271       -4120.80767287611        296.658272686293        296.658272686293        267.111883181565                       0     0.00201872364173409   4.49802858260308E-010       0.485380398761633        17.1380835780176   5.28182149785127E-006   2.13324057661062E-012                       0                       0                       0   1.83100000867853E-005   8.31559975149119E-005     -0.0298975186124205         103198.14766856     0.00231629015785482        12.0769331755724         11.074576973466        10206.0936414549         9889.0936421304                       1                       1                       1 
     0.0720360180090045                    0.15                       0        1.14130402235874        102414.148137885   1.00000000362749E-015       -4121.66506949231        97203.3352111645       -4121.66506949231        296.649548748879        296.649548748879        267.111901470742                       0     0.00200191207432149   4.05165786930787E-010       0.485481676865139        16.9953285502767   5.41029594305471E-006   8.93012787965061E-012                       0                       0                       0   1.83100000867853E-005    8.3154102886532E-005     -0.0331082710338856        102294.888234313   -0.000710556769648132        12.0264693355635        11.0743357849448        10206.3932913303        9889.39329200582                       1                       1                       1 
     0.0760380190095048                    0.15                       0        1.14132752680883        101470.901832372   1.00000000362749E-015       -4122.52246610852         97202.478399802       -4122.52246610852        296.640824811466        296.640824811466        267.111919759919                       0     0.00198510050690889   3.60528715601266E-010       0.485582954968645        16.8525735225358   5.53877038825814E-006   1.57270151826906E-011                       0                       0                       0   1.83100000867853E-005   8.31522082581522E-005     -0.0363190234553507        101391.628800067    -0.00373740369715109        11.9760054955546        11.0740945964235        10206.6929412057        9889.69294188125                       1                       1                       1 
      0.080040020010005                    0.15                       0        1.14135103125891        100527.655526858   1.00000000362749E-015       -4123.37986272472        97201.6215884395       -4123.37986272472        296.632100874053        296.632100874053        267.111938049096                       0      0.0019682889394963   3.15891644271744E-010       0.485684233072151        16.7098184947949   5.66724483346158E-006   2.25239024857306E-011                       0                       0                       0   1.83100000867853E-005   8.31503136297723E-005     -0.0395297758768157         100488.36936582    -0.00676425062465404        11.9255416555457        11.0738534079023        10206.9925910812        9889.99259175667                       1                       1                       1 
     0.0840420210105053                    0.15                       0        1.14136752358325        99794.6142315721   1.00000000362749E-015       -4124.11808560712        97200.8836650239       -4124.11808560712        296.625564999723        296.625564999723        267.111938476563                       0     0.00195438935139354   1.87922477234918E-010       0.485771408400695        16.5918047912869    5.2710154999653E-006   2.26046774124394E-011                       0                       0                       0   1.83100000867853E-005   8.31488469880429E-005     -0.0408236683814199        99772.2141679011     -0.0048492466845393        11.8832758055071        11.0736607810113        10207.2922407933        9890.29224146884                       1                       1                       1 
     0.0880440220110055                    0.15                       0        1.14138384809343        99066.6035602854   1.00000000362749E-015       -4124.85345642436        97200.1485868333       -4124.85345642436        296.619081490105        296.619081490105        267.111938476563                       0     0.00194055945275276   5.79587953594061E-011       0.485858246221795         16.474383196834   4.86222907904813E-006   2.25247224123085E-011                       0                       0                       0   1.83100000867853E-005   8.31473905886739E-005     -0.0420716930357346        99060.5367467279    -0.00281597968570128        11.8412061496583        11.0734693162967        10207.5918905016         9890.5918911771                       1                       1                       1 
     0.0920460230115057                    0.15                       0         1.1414001726036        98338.5928889986   1.00000000362749E-015       -4125.58882724161        97199.4135086427       -4125.58882724161        296.612597980488        296.612597980488        267.111938476563                       0     0.00192672955411197  -7.20048865161064E-011       0.485945084042895        16.3569616023812   4.45344265813097E-006   2.24447674121776E-011                       0                       0                       0   1.83100000867853E-005   8.31459341893048E-005     -0.0433197176900494        98348.8593255547   -0.000782712686863262        11.7991364938095        11.0732778515822        10207.8915402098        9890.89154088536                       1                       1                       1 
      0.096048024012006                    0.15                       0        1.14141384768607        97694.5126901312   1.00000000362749E-015        -4126.2443045628         97198.757762634        -4126.2443045628        296.607044145646        296.607044145646        267.111938476563                       0     0.00191426422567165  -1.60334419564447E-010       0.486022466158182        16.2511415612749   4.33636556243648E-006   2.23723470964524E-011                       0                       0                       0   1.83100000867853E-005   8.31446813190896E-005     -0.0437235029582473        97715.7566940858   9.43814426191849E-005        11.7609635001196        11.0731077649869         10208.191190025        9891.19119070051                       1                       1                       1 
      0.100050025012506                    0.15                       0        1.14142602856369        97097.7669862677   1.00000000362749E-015       -4126.85472413324        97198.1467578099       -4126.85472413324         296.60201462198         296.60201462198        267.111938476563                       0     0.00190256847756011  -2.25183778554207E-010       0.486094515513537        16.1518644794784   4.38380417370056E-006   2.23041761370152E-011                       0                       0                       0   1.83100000867853E-005   8.31435432339178E-005      -0.043651161136805        97126.9680990237    0.000319424314727142        11.7249881174891        11.0729497350671        10208.4908399004        9891.49084057593                       1                       1                       1 
      0.104052026013007                    0.15                       0        1.14143820944132        96501.0212824043   1.00000000362749E-015       -4127.46514370369        97197.5357529858       -4127.46514370369        296.596985098314        296.596985098314        267.111938476563                       0     0.00189087272944857  -2.90033137543967E-010       0.486166564868893        16.0525873976819   4.43124278496465E-006   2.22360051775781E-011                       0                       0                       0   1.83100000867853E-005    8.3142405148746E-005     -0.0435788193153627        96538.1795039615      0.0005444671868351        11.6890127348586        11.0727917051474        10208.7904897758        9891.79049045135                       1                       1                       1 
      0.108054027013507                    0.15                       0         1.1414494836381        95931.9555418016   1.00000000362749E-015       -4128.05098164213        97196.9495066391       -4128.05098164213        296.592267818399        296.592267818399        267.111938476563                       0     0.00187966191351188  -3.44154533324574E-010       0.486235694490633        15.9574313170206   4.24662820947631E-006   2.11749340522899E-011                       0                       0                       0   1.83100000867853E-005    8.3141319767618E-005     -0.0433586192290934        95976.0536554615    0.000701100369089404        11.6544374429669        11.0726409286843        10209.0901396007        9892.09014027627                       1                       1                       1 
      0.112056028014007                    0.15                       0        1.14145866394252        95426.8140230606   1.00000000362749E-015       -4128.58005065828         97196.420437623       -4128.58005065828        296.588271635461        296.588271635461        267.111938476563                       0     0.00186957100193628  -3.73501041583983E-010       0.486298081267495        15.8717922936483   3.52610793841383E-006   1.78208551685618E-011                       0                       0                       0   1.83100000867853E-005   8.31403561021672E-005     -0.0427969551670637        95475.5028638917    0.000699746772329718        11.6230955264981        11.0725069033841         10209.389789309        9892.38978998453                       1                       1                       1 
      0.116058029014507                    0.15                       0        1.14146784424693        94921.6725043196   1.00000000362749E-015       -4129.10911967443        97195.8913686068       -4129.10911967443        296.584275452523        296.584275452523        267.111938476563                       0     0.00185948009036067  -4.02847549843392E-010       0.486360468044357         15.786153270276   2.80558766735136E-006   1.44667762848336E-011                       0                       0                       0   1.83100000867853E-005   8.31393924367164E-005      -0.042235291105034        94974.9520723218    0.000698393175570031        11.5917536100292         11.072372878084        10209.6894390173        9892.68943969279                       1                       1                       1 
      0.120060030015008                    0.15                       0        1.14147702455134        94416.5309855787   1.00000000362749E-015       -4129.63818869057        97195.3622995907       -4129.63818869057        296.580279269585        296.580279269585        267.111938476563                       0     0.00184938917878507    -4.321940581028E-010       0.486422854821219        15.7005142469037   2.08506739628888E-006   1.11126974011055E-011                       0                       0                       0   1.83100000867853E-005   8.31384287712657E-005     -0.0416736270430043        94474.4012807519    0.000697039578810345        11.5604116935604        11.0722388527838        10209.9890887255        9892.98908940105                       1                       1                       1 
      0.124062031015508                    0.15                       0        1.14148403333639        93977.8335611356   1.00000000362749E-015       -4130.11784374965        97194.8829268987       -4130.11784374965        296.576989002237        296.576989002237        267.111938476563                       0     0.00184051031918368  -3.64357861902977E-010       0.486479502603094        15.6251217389142   2.07927674479093E-006   1.09697475618819E-011                       0                       0                       0   1.83100000867853E-005   8.31375408419968E-005     -0.0411106117001587        94038.9301881704   -0.000524948212283458        11.5325861129754        11.0721230268532        10210.2887385951        9893.28873927061                       1                       1                       1 
      0.128064032016008                    0.15                       0        1.14149096321985        93541.5503655619   1.00000000362749E-015       -4130.59570336544        97194.4053599098       -4130.59570336544        296.573724384149        296.573724384149        267.111938476563                       0     0.00183167549917002  -2.92990621892984E-010        0.48653594186014         15.550101535375   2.09945397834979E-006   1.09434732621266E-011                       0                       0                       0   1.83100000867853E-005   8.31366556646409E-005     -0.0405475463899166        93605.8237494791    -0.00179128942592601        11.5048882975327         11.072007862192        10210.5883884705        9893.58838914604                       1                       1                       1 
      0.132066033016508                    0.15                       0        1.14149789310331        93105.2671699881   1.00000000362749E-015       -4131.07356298123        97193.9277929208       -4131.07356298123         296.57045976606         296.57045976606        267.111938476563                       0     0.00182284067915636   -2.2162338188299E-010       0.486592381117186        15.4750813318359   2.11963121190865E-006   1.09171989623713E-011                       0                       0                       0   1.83100000867853E-005   8.31357704872851E-005     -0.0399844810796745        93172.7173107877    -0.00305763063956857          11.47719048209        11.0718926975308        10210.8880383459        9893.88803902146                       1                       1                       1 
      0.136068034017009                    0.15                       0        1.14150374670515        92702.6778319872   1.00000000362749E-015       -4131.53057418351        97193.4707988177       -4131.53057418351        296.567539558457        296.567539558457        267.111938476563                       0     0.00181462894014979  -1.81997432484613E-010        0.48664631464188        15.4053654173892   2.02977254530356E-006   1.08926484623516E-011                       0                       0                       0   1.83100000867853E-005   8.31349619496279E-005     -0.0389648484687446        92772.7595514297    -0.00524346181485374        11.4513293468592        11.0717863225236        10211.1876881164        9894.18768879196                       1                       1                       1 