VARIABLES = "X"
 "Y"
 "Z"
 "RHO"
 "U"
 "V"
 "W"
 "VelocityMagnitude"
 "Mach"
 "P"
 "P_tot"
 "Vislam"
 "SkinFrictionCoefficient"
 "T"
 "H0"
 "COND_TURB"
 "CP"
 "COND_eff"
 "Ywall"
 "VIS_T"
 "YPLUS"
ZONE
DT=(DOUBLE,DOUBLE,DOUBLE,DOUBLE,DOUBLE,DOUBLE,DOUBLE,DOUBLE,DOUBLE,DOUBLE,DOUBLE,DOUBLE,DOUBLE,DOUBLE,DOUBLE,DOUBLE,DOUBLE,DOUBLE,DOUBLE,DOUBLE,DOUBLE)
                      0                    0.15                       0         1.1228814125061                       0                       0                       0                       0                       0            -4353.984375                       0   1.82826970558381E-005      0.0476757511496544        296.668975830078            300646.15625       0.610501527786255                    1007       0.636801540851593    0.000250000011874363    0.000545631977729499          36.28271484375 
    0.00400200100050025                    0.15                       0        1.12263784657841                       0                       0                       0                       0                       0        -4354.9834836852       -59.4071668173564   1.82856212337208E-005      0.0459561089315583        296.831298996056        300345.116527013       0.588551595516358                    1007       0.614851608581696    0.000250000011874363     0.00052601436212514        36.2395572824559 
     0.0080040020010005                    0.15                       0        1.12239428065072                       0                       0                       0                       0                       0        -4355.9825923704       -118.814333634713   1.82885454116036E-005      0.0442364667134621        296.993622162033        300044.076804027        0.56660166324646                    1007       0.592901676311798    0.000250000011874363     0.00050639674652078        36.1963997211618 
     0.0120060030015008                    0.15                       0        1.12215071472303                       0                       0                       0                       0                       0       -4356.98170105561       -178.221500452069   1.82914695894864E-005       0.042516824495366        297.155945328011        299743.037081041       0.544651730976563                    1007       0.570951744041901    0.000250000011874363    0.000486779130916421        36.1532421598678 
      0.016008004002001                    0.15                       0        1.12190714879534                       0                       0                       0                       0                       0       -4357.98080974081       -237.628667269425   1.82943937673692E-005      0.0407971822772699        297.318268493988        299441.997358054       0.522701798706665                    1007       0.549001811772004    0.000250000011874363    0.000467161515312062        36.1100845985737 
     0.0200100050025012                    0.15                       0        1.12149998311581                       0                       0                       0                       0                       0       -4359.23519059334       -272.738682092816   1.82993489529301E-005      0.0385998728190767        297.430562494993        299544.694253377       0.495044413568259                    1007       0.521344426633597    0.000250000011874363    0.000442442896647431        36.0285353133415 
     0.0240120060030015                    0.15                       0        1.12109182792166                       0                       0                       0                       0                       0       -4360.49111543076       -307.701738335598   1.83043164228117E-005       0.036399674244512        297.542553900241        299649.833104052       0.467352507545568                    1007       0.493652520610906    0.000250000011874363     0.00041769342514171        35.9467538201016 
     0.0280140070035017                    0.15                       0         1.1206836727275                       0                       0                       0                       0                       0       -4361.74704026818        -342.66479457838   1.83092838926933E-005      0.0341994756699473         297.65454530549        299754.971954727       0.439660601522876                    1007       0.465960614588214    0.000250000011874363    0.000392943953635989        35.8649723268617 
      0.032016008004002                    0.15                       0        1.12027551753334                       0                       0                       0                       0                       0        -4363.0029651056       -377.627850821162   1.83142513625749E-005      0.0319992770953826        297.766536710738        299860.110805403       0.411968695500185                    1007       0.438268708565523    0.000250000011874363    0.000368194482130268        35.7831908336218 
     0.0360180090045022                    0.15                       0        1.11999022406062                       0                       0                       0                       0                       0       -4363.42713837387       -408.029139722449   1.83177976512128E-005      0.0313123004001311        297.842853235089        299935.207853927         0.4040590627692                    1007       0.430359075834538    0.000250000011874363    0.000361125294841605        35.7104466005586 
     0.0400200100050025                    0.15                       0        1.11970642586241                       0                       0                       0                       0                       0         -4363.841188905       -438.374910157105   1.83213266435272E-005      0.0306437401983397        297.918735582391        300009.939282141       0.396390187928174                    1007       0.422690200993513    0.000250000011874363    0.000354271283425766        35.6378123544347 
     0.0440220110055027                    0.15                       0         1.1194226276642                       0                       0                       0                       0                       0       -4364.25523943612        -468.72068059176   1.83248556358416E-005      0.0299751799965483        297.994617929692        300084.670710355        0.38872131308715                    1007       0.415021326152488    0.000250000011874363    0.000347417272009927        35.5651781083107 
      0.048024012006003                    0.15                       0        1.11913882946598                       0                       0                       0                       0                       0       -4364.66928996725       -499.066451026416   1.83283846281561E-005       0.029306619794757        298.070500276994        300159.402138569       0.381052438246125                    1007       0.407352451311463    0.000250000011874363    0.000340563260594089        35.4925438621868 
     0.0520260130065033                    0.15                       0        1.11892977829514                       0                       0                       0                       0                       0       -4364.97011494028       -525.645923181317   1.83309879832615E-005      0.0290101410102671        298.125683950984        300214.554402201       0.378205769401362                    1007       0.404505775161479    0.000250000011874363    0.000338019065961559        35.4283401924351 
     0.0560280140070035                    0.15                       0        1.11872210002888                       0                       0                       0                       0                       0       -4365.26886026021       -552.156218429038   1.83335743368671E-005      0.0287204963742583        298.180487445261        300269.347048524       0.375447671687144                    1007       0.401747670007861    0.000250000011874363    0.000335554031229132        35.3642913700045 
     0.0600300150075038                    0.15                       0        1.11851442176262                       0                       0                       0                       0                       0       -4365.56760558013        -578.66651367676   1.83361606904727E-005      0.0284308517382496        298.235290939537        300324.139694847       0.372689573972925                    1007       0.398989564854244    0.000250000011874363    0.000333088996496705        35.3002425475738 
      0.064032016008004                    0.15                       0        1.11830674349636                       0                       0                       0                       0                       0       -4365.86635090006       -605.176808924481   1.83387470440784E-005      0.0281412071022408        298.290094433814        300378.932341171       0.369931476258707                    1007       0.396231459700626    0.000250000011874363    0.000330623961764277        35.2361937251432 
     0.0680340170085043                    0.15                       0        1.11815067283388                       0                       0                       0                       0                       0       -4366.12905256339       -628.549298666667   1.83406872915559E-005      0.0279668496093299        298.331046993223        300420.044100175       0.368608234016939                    1007       0.394908224540451    0.000250000011874363    0.000329441326274222        35.1792608855545 
     0.0720360180090045                    0.15                       0        1.11799587381667                       0                       0                       0                       0                       0       -4366.39086608734       -651.844470819394   1.83426116185539E-005      0.0277953328673782        298.371658256496        300460.818753127       0.367320347556834                    1007       0.393620345519745    0.000250000011874363    0.000328290289944143        35.1225033884588 
     0.0760380190095047                    0.15                       0        1.11784107479947                       0                       0                       0                       0                       0       -4366.65267961129        -675.13964297212   1.83445359455519E-005      0.0276238161254266         298.41226951977        300501.593406078       0.366032461096729                    1007       0.392332466499039    0.000250000011874363    0.000327139253614064         35.065745891363 
      0.080040020010005                    0.15                       0        1.11768627578226                       0                       0                       0                       0                       0       -4366.91449313524       -698.434815124847   1.83464602725499E-005       0.027452299383475        298.452880783043         300542.36805903       0.364744574636623                    1007       0.391044587478332    0.000250000011874363    0.000325988217283985        35.0089883942673 
     0.0840420210105052                    0.15                       0        1.11756873900083                       0                       0                       0                       0                       0        -4367.1365836727       -719.113856213995   1.83479186397971E-005      0.0273266199178595        298.483627800228        300573.291411331       0.363978106925462                    1007       0.390278119990801    0.000250000011874363     0.00032530319003126        34.9581577573913 
     0.0880440220110055                    0.15                       0        1.11745235704076                       0                       0                       0                       0                       0       -4367.35744312586        -739.71181886109    1.8349362566143E-005        0.02720236102899        298.514069107308        300603.909454727       0.363227798886273                    1007       0.389527811951611    0.000250000011874363    0.000324632605208618        34.9075108041997 
     0.0920460230115058                    0.15                       0        1.11733597508068                       0                       0                       0                       0                       0       -4367.57830257902       -760.309781508185   1.83508064924888E-005      0.0270781021401204        298.544510414387        300634.527498124       0.362477490847083                    1007       0.388777503912422    0.000250000011874363    0.000323962020385976        34.8568638510082 
      0.096048024012006                    0.15                       0        1.11721959312061                       0                       0                       0                       0                       0       -4367.79916203219        -780.90774415528   1.83522504188347E-005      0.0269538432512509        298.574951721466        300665.145541521       0.361727182807894                    1007       0.388027195873232    0.000250000011874363    0.000323291435563334        34.8062168978166 
      0.100050025012506                    0.15                       0         1.1171304037596                       0                       0                       0                       0                       0       -4367.98782911964        -799.32454184856    1.8353354701004E-005      0.0268536620391808        298.598218771862        300688.552494998       0.361219048097528                    1007       0.387519061162867    0.000250000011874363    0.000322837291618277        34.7605329955322 
      0.104052026013007                    0.15                       0        1.11704223200105                       0                       0                       0                       0                       0       -4368.17529150317       -817.659715905315   1.83544462729963E-005      0.0267543818628329        298.621217346955        300711.689594797       0.360719976006537                    1007       0.387019989071875    0.000250000011874363    0.000322391247331841        34.7150348207246 
      0.108054027013507                    0.15                       0         1.1169540602425                       0                       0                       0                       0                       0       -4368.36275388671        -835.99488996207   1.83555378449885E-005       0.026655101686485        298.644215922048        300734.826694597       0.360220903915546                    1007       0.386520916980884    0.000250000011874363    0.000321945203045405         34.669536645917 
      0.112056028014007                    0.15                       0        1.11686588848395                       0                       0                       0                       0                       0       -4368.55021627025       -854.330064018825   1.83566294169808E-005      0.0265558215101371        298.667214497141        300757.963794397       0.359721831824554                    1007       0.386021844889892    0.000250000011874363    0.000321499158758968        34.6240384711093 
      0.116058029014507                    0.15                       0        1.11679772742693                       0                       0                       0                       0                       0       -4368.71537795265       -870.839587090908   1.83574713242604E-005      0.0264720753713019        298.684944385645        300775.810373937       0.359361309612197                    1007       0.385661315551217    0.000250000011874363    0.000321176941210722        34.5827262386076 
      0.120060030015008                    0.15                       0        1.11673044550115                       0                       0                       0                       0                       0       -4368.87955989714       -887.268903738978   1.83583022630066E-005      0.0263890116901816        298.702442804654        300793.424524762       0.359006874319194                    1007       0.385306872818815    0.000250000011874363      0.0003208601637493        34.5415979073369 
      0.124062031015508                    0.15                       0        1.11666316357537                       0                       0                       0                       0                       0       -4369.04374184162       -903.698220387048   1.83591332017528E-005      0.0263059480090613        298.719941223664        300811.038675588       0.358652439026191                    1007       0.384952430086413    0.000250000011874363    0.000320543386287877        34.5004695760661 
      0.128064032016008                    0.15                       0        1.11659588164959                       0                       0                       0                       0                       0       -4369.20792378611       -920.127537035119    1.8359964140499E-005       0.026222884327941        298.737439642673        300828.652826413       0.358298003733188                    1007       0.384597987354011    0.000250000011874363    0.000320226608826455        34.4593412447954 
      0.132066033016508                    0.15                       0        1.11654335776229                       0                       0                       0                       0                       0       -4369.35609430692       -935.017451016768   1.83606092220237E-005      0.0261511060494507         298.75103672747        300842.338841296       0.358034602310015                    1007        0.38433458557303    0.000250000011874363    0.000319991193605417         34.421765266865 
      0.136068034017009                    0.15                       0        1.11649157954431                       0                       0                       0                       0                       0       -4369.50345582948       -949.829584653166   1.83612449128678E-005      0.0260798979807774        298.764436692223        300855.826381941       0.357775800492896                    1007       0.384075783755912    0.000250000011874363    0.000319759889318631        34.3843687762613 
      0.140070035017509                    0.15                       0        1.11643980132633                       0                       0                       0                       0                       0       -4369.65081735204       -964.641718289564   1.83618806037119E-005      0.0260086899121041        298.777836656976        300869.313922586       0.357516998675777                    1007       0.383816981938793    0.000250000011874363    0.000319528585031844        34.3469722856576 
      0.144072036018009                    0.15                       0        1.11638802310835                       0                       0                       0                       0                       0       -4369.79817887459       -979.453851925962    1.8362516294556E-005      0.0259374818434308        298.791236621729        300882.801463232       0.357258196858658                    1007       0.383558180121674    0.000250000011874363    0.000319297280745057        34.3095757950539 
      0.148074037018509                    0.15                       0         1.1163472505496                       0                       0                       0                       0                       0       -4369.93343473495       -992.958170522028   1.83630141171046E-005      0.0258749515505851        298.801725462951        300893.359664207       0.357063423489976                    1007       0.383363406752991    0.000250000011874363    0.000319123205974239        34.2752183300665 
       0.15207603801901                    0.15                       0        1.11630710755186                       0                       0                       0                       0                       0       -4370.06799811038       -1006.38767766452   1.83635040531195E-005       0.025812917655933        298.812047778039        300903.750297024       0.356872312765589                    1007       0.383172296028605    0.000250000011874363    0.000318952404925732        34.2410347076462 
       0.15607803901951                    0.15                       0        1.11626696455413                       0                       0                       0                       0                       0       -4370.20256148582         -1019.817184807   1.83639939891343E-005      0.0257508837612809        298.822370093128         300914.14092984       0.356681202041202                    1007       0.382981185304218    0.000250000011874363    0.000318781603877225        34.2068510852258 
       0.16008004002001                    0.15                       0         1.1162268215564                       0                       0                       0                       0                       0       -4370.33712486126       -1033.24669194949   1.83644839251491E-005      0.0256888498666288        298.832692408216        300924.531562656       0.356490091316816                    1007       0.382790074579831    0.000250000011874363    0.000318610802828719        34.1726674628055 
       0.16408204102051                    0.15                       0        1.11619498522178                       0                       0                       0                       0                       0       -4370.46217982038       -1045.55694106819   1.83648705836956E-005      0.0256337102226775         298.84083093793        300932.729989995       0.356345751021372                    1007       0.382645741276529    0.000250000011874363    0.000318481804402461        34.1411016978521 
      0.168084042021011                    0.15                       0        1.11616368023022                       0                       0                       0                       0                       0       -4370.58662656524       -1057.79559585701   1.83652506360073E-005      0.0255790115755728         298.84882977988         300940.78819097       0.356204402437802                    1007       0.382504400132357    0.000250000011874363    0.000318355479917926         34.109703386468 
      0.172086043021511                    0.15                       0        1.11613237523866                       0                       0                       0                       0                       0       -4370.71107331009       -1070.03425064583   1.83656306883191E-005      0.0255243129284681         298.85682862183        300948.846391946       0.356063053854231                    1007       0.382363058988186    0.000250000011874363     0.00031822915543339        34.0783050750839 
      0.176088044022011                    0.15                       0        1.11610107024709                       0                       0                       0                       0                       0       -4370.83552005495       -1082.27290543465   1.83660107406309E-005      0.0254696142813633        298.864827463781        300956.904592921        0.35592170527066                    1007       0.382221717844014    0.000250000011874363    0.000318102830948854        34.0469067636998 
      0.180090045022511                    0.15                       0        1.11607599013922                       0                       0                       0                       0                       0       -4370.95245425447       -1093.54705184624   1.83663119221445E-005      0.0254205100400454        298.871175822286        300963.294553527       0.355815274393994                    1007       0.382115287459332    0.000250000011874363    0.000318007708769762        34.0177787563215 
      0.184092046023011                    0.15                       0        1.11605135084928                       0                       0                       0                       0                       0       -4371.06885644971       -1104.75289616244    1.8366607518387E-005      0.0253718019690944        298.877407301063        300969.566376938       0.355711316230477                    1007       0.382011329295815    0.000250000011874363    0.000317914796195991        33.9888115215445 
      0.188094047023512                    0.15                       0        1.11602671155934                       0                       0                       0                       0                       0       -4371.18525864495       -1115.95874047864   1.83669031146295E-005      0.0253230938981434        298.883638779839         300975.83820035       0.355607358066961                    1007       0.381907371132299    0.000250000011874363    0.000317821883622221        33.9598442867674 
      0.192096048024012                    0.15                       0        1.11600207226941                       0                       0                       0                       0                       0       -4371.30166084019       -1127.16458479484    1.8367198710872E-005      0.0252743858271924        298.889870258616        300982.110023762       0.355503399903444                    1007       0.381803412968782    0.000250000011874363     0.00031772897104845        33.9308770519904 
      0.196098049024512                    0.15                       0        1.11598220964024                       0                       0                       0                       0                       0       -4371.41184288433       -1137.53410152342   1.83674349028698E-005      0.0252302779670266         298.89485063882        300987.122436218       0.355425740984931                    1007       0.381725754050269    0.000250000011874363      0.0003176595640181        33.9038916068294 
      0.200100050025012                    0.15                       0        1.11596271841451                       0                       0                       0                       0                       0       -4371.52154128822       -1147.83859062099    1.8367666475963E-005      0.0251865277906368        298.899733741382        300992.036924712       0.355350126932119                    1007       0.381650139997457    0.000250000011874363    0.000317591984632596        33.8770602533017 
      0.204102051025513                    0.15                       0        1.11594322718877                       0                       0                       0                       0                       0       -4371.63123969211       -1158.14307971857   1.83678980490562E-005       0.025142777614247        298.904616843944        300996.951413207       0.355274512879308                    1007       0.381574525944646    0.000250000011874363    0.000317524405247091         33.850228899774 
      0.208104052026013                    0.15                       0        1.11592373596304                       0                       0                       0                       0                       0         -4371.740938096       -1168.44756881615   1.83681296221494E-005      0.0250990274378572        298.909499946506        301001.865901701       0.355198898826497                    1007       0.381498911891835    0.000250000011874363    0.000317456825861587        33.8233975462463 
      0.212106053026513                    0.15                       0        1.11590789317369                       0                       0                       0                       0                       0       -4371.84558026083       -1178.02289206126   1.83683155703658E-005      0.0250591040048944        298.913413936583        301005.809592296       0.355143193440654                    1007       0.381443199648029    0.000250000011874363    0.000317407034317953        33.7983051527137 
      0.216108054027014                    0.15                       0         1.1158923597083                       0                       0                       0                       0                       0       -4371.94979374453       -1187.53639472324   1.83684976503861E-005      0.0250195050132221        298.917245762774        301009.670976113       0.355089175963533                    1007       0.381389174731509    0.000250000011874363    0.000317358750873956        33.7733601927459 
      0.220110055027514                    0.15                       0         1.1158768262429                       0                       0                       0                       0                       0       -4372.05400722822       -1197.04989738522   1.83686797304065E-005      0.0249799060215498        298.921077588965         301013.53235993       0.355035158486412                    1007       0.381335149814988    0.000250000011874363    0.000317310467429959        33.7484152327781 
      0.224112056028014                    0.15                       0        1.11586129277751                       0                       0                       0                       0                       0       -4372.15822071192       -1206.56340004719   1.83688618104268E-005      0.0249403070298775        298.924909415157        301017.393743747        0.35498114100929                    1007       0.381281124898468    0.000250000011874363    0.000317262183985961        33.7234702728104 
      0.228114057028514                    0.15                       0        1.11584856636587                       0                       0                       0                       0                       0       -4372.25841558475       -1215.43780404607    1.8369008959299E-005      0.0249039213312394         298.92800170532        301020.504986868       0.354942221665991                    1007       0.381242211742244    0.000250000011874363    0.000317227400599044         33.700060198938 