VARIABLES = "X"
 "Y"
 "Z"
 "RHO"
 "U"
 "V"
 "W"
 "VelocityMagnitude"
 "Mach"
 "P"
 "P_tot"
 "Vislam"
 "SkinFrictionCoefficient"
 "T"
 "H0"
 "COND_TURB"
 "CP"
 "COND_eff"
 "Ywall"
 "VIS_T"
 "YPLUS"
ZONE
DT=(DOUBLE,DOUBLE,DOUBLE,DOUBLE,DOUBLE,DOUBLE,DOUBLE,DOUBLE,DOUBLE,DOUBLE,DOUBLE,DOUBLE,DOUBLE,DOUBLE,DOUBLE,DOUBLE,DOUBLE,DOUBLE,DOUBLE,DOUBLE,DOUBLE)
                    7.9                    0.15                       0        1.11379762291908                       0                       0                       0                       0                       0       -4498.60374145508       -2552.85706787109   1.83763559562067E-005      0.0183948330814019        299.082779693603         301176.36015625       0.330960275232792                    1007       0.357260265573859    0.000250000011874363    0.000295793692930601        29.8734970092773 
                    7.9                    0.15   1.00033344448149E-006        1.11380202666685       0.122210113077664   1.11436365970136E-010   3.38070298380202E-007       0.122210113077664    0.000353328448885837       -4498.60374145508       -2552.54570041006   1.83762999999925E-005      0.0183580296659325        299.081143558626        301178.911412919       0.331415499198254                    1007       0.357715489569133    0.000250518234252477    0.000296200546546449        29.8137294108596 
                    7.9                    0.15   2.00066688896299E-006        1.11380643041462       0.244420226155328   2.22872731940313E-010   6.76140596760404E-007       0.244420226155328    0.000706656897771673       -4498.60374145508       -2552.23433294904   1.83762440437783E-005      0.0183212262504632        299.079507423648        301181.462669588       0.331870723163716                    1007       0.358170713564408    0.000251036456630591    0.000296607400162297        29.7539618124418 
                    7.9                    0.15   3.00100033344448E-006        1.11381083416239       0.366630339232992   3.34309097910489E-010   1.01421089514061E-006       0.366630339232992     0.00105998534665751       -4498.60374145508       -2551.92296548801    1.8376188087564E-005      0.0182844228349938         299.07787128867        301184.013926257       0.332325947129178                    1007       0.358625937559682    0.000251554679008705    0.000297014253778144        29.6941942140241 
                    7.9                    0.15   4.00133377792597E-006        1.11381523791016       0.488840452310656   4.45745463880666E-010   1.35228119352081E-006       0.488840452310656     0.00141331379554335       -4498.60374145508       -2551.61159802698   1.83761321313498E-005      0.0182476194195245        299.076235153692        301186.565182925        0.33278117109464                    1007       0.359081161554956    0.000252072901386819    0.000297421107393992        29.6344266156063 
                    7.9                    0.15   5.00166722240747E-006        1.11381964165793        0.61105056538832   5.57181829850843E-010   1.69035149190101E-006        0.61105056538832     0.00176664224442918       -4498.60374145508       -2551.30023056595   1.83760761751356E-005      0.0182108160040551        299.074599018714        301189.116439594       0.333236395060102                    1007       0.359536385550231    0.000252591123764934     0.00029782796100984        29.5746590171886 
                    7.9                    0.15   6.00200066688896E-006         1.1138240454057       0.733260678465985   6.68618195821019E-010   2.02842179028121E-006       0.733260678465985     0.00211997069331502       -4498.60374145508       -2550.98886310492   1.83760202189214E-005      0.0181740125885858        299.072962883736        301191.667696263       0.333691619025564                    1007       0.359991609545505    0.000253109346143048    0.000298234814625687        29.5148914187708 
                    7.9                    0.15   7.00233411137046E-006        1.11382844915347       0.855470791543649   7.80054561791196E-010   2.36649208866141E-006       0.855470791543649     0.00247329914220086       -4498.60374145508       -2550.67749564389   1.83759642627072E-005      0.0181372091731164        299.071326748758        301194.218952932       0.334146842991026                    1007       0.360446833540779    0.000253627568521162    0.000298641668241535        29.4551238203531 
                    7.9                    0.15   8.00266755585195E-006        1.11383285290124       0.977680904621313   8.91490927761372E-010   2.70456238704162E-006       0.977680904621313     0.00282662759108669       -4498.60374145508       -2550.36612818286    1.8375908306493E-005      0.0181004057576471         299.06969061378        301196.770209601       0.334602066956488                    1007       0.360902057536054    0.000254145790899276    0.000299048521857383        29.3953562219353 
                    7.9                    0.15   9.00300100033344E-006        1.11383725664901        1.09989101769898   1.00292729373155E-009   3.04263268542182E-006        1.09989101769898     0.00317995603997253       -4498.60374145508       -2550.05476072184   1.83758523502788E-005      0.0180636023421777        299.068054478802         301199.32146627        0.33505729092195                    1007       0.361357281531328     0.00025466401327739     0.00029945537547323        29.3355886235175 
                    7.9                    0.15   1.00033344448149E-005        1.11384166039678        1.22210113077664   1.11436365970173E-009   3.38070298380202E-006        1.22210113077664     0.00353328448885837       -4498.60374145508       -2549.74339326081   1.83757963940646E-005      0.0180267989267084        299.066418343824        301201.872722939       0.335512514887412                    1007       0.361812505526602    0.000255182235655504    0.000299862229089078        29.2758210250998 
                    7.9                    0.15   1.10036678892964E-005        1.11384606414455        1.34431124385431    1.2258000256719E-009   3.71877328218222E-006        1.34431124385431      0.0038866129377442       -4498.60374145508       -2549.43202579978   1.83757404378504E-005       0.017989995511239        299.064782208846        301204.423979608       0.335967738852874                    1007       0.362267729521876    0.000255700458033618    0.000300269082704926         29.216053426682 
                    7.9                    0.15   1.20040013337779E-005        1.11385046789232        1.46652135693197   1.33723639164208E-009   4.05684358056242E-006        1.46652135693197     0.00423994138663004       -4498.60374145508       -2549.12065833875   1.83756844816362E-005      0.0179531920957697        299.063146073868        301206.975236277       0.336422962818336                    1007       0.362722953517151    0.000256218680411733    0.000300675936320773        29.1562858282643 
                    7.9                    0.15   1.30043347782594E-005        1.11385487164009        1.58873147000963   1.44867275761226E-009   4.39491387894262E-006        1.58873147000963     0.00459326983551588       -4498.60374145508       -2548.80929087772    1.8375628525422E-005      0.0179163886803003         299.06150993889        301209.526492946       0.336878186783798                    1007       0.363178177512425    0.000256736902789847    0.000301082789936621        29.0965182298465 
                    7.9                    0.15   1.40046682227409E-005        1.11385927538786         1.7109415830873   1.56010912358243E-009   4.73298417732283E-006         1.7109415830873     0.00494659828440171       -4498.60374145508       -2548.49792341669   1.83755725692078E-005       0.017879585264831        299.059873803912        301212.077749614        0.33733341074926                    1007       0.363633401507699    0.000257255125167961    0.000301489643552469        29.0367506314287 
                    7.9                    0.15   1.50050016672224E-005        1.11386367913563        1.83315169616496   1.67154548955261E-009   5.07105447570303E-006        1.83315169616496     0.00529992673328755       -4498.60374145508       -2548.18655595566   1.83755166129935E-005      0.0178427818493616        299.058237668934        301214.629006283       0.337788634714722                    1007       0.364088625502974    0.000257773347546075    0.000301896497168316         28.976983033011 
                    7.9                    0.15   1.60053351117039E-005         1.1138680828834        1.95536180924263   1.78298185552278E-009   5.40912477408323E-006        1.95536180924263     0.00565325518217338       -4498.60374145508       -2547.87518849463   1.83754606567793E-005      0.0178059784338923        299.056601533956        301217.180262952       0.338243858680184                    1007       0.364543849498248    0.000258291569924189    0.000302303350784164        28.9172154345932 
                    7.9                    0.15   1.70056685561854E-005        1.11387248663117        2.07757192232029   1.89441822149296E-009   5.74719507246343E-006        2.07757192232029     0.00600658363105923       -4498.60374145508       -2547.56382103361   1.83754047005651E-005      0.0177691750184229        299.054965398979        301219.731519621       0.338699082645647                    1007       0.364999073493522    0.000258809792302303    0.000302710204400012        28.8574478361755 
                    7.9                    0.15   1.80060020006669E-005        1.11387689037894        2.19978203539795   2.00585458746314E-009   6.08526537084363E-006        2.19978203539795     0.00635991207994506       -4498.60374145508       -2547.25245357258   1.83753487443509E-005      0.0177323716029536        299.053329264001         301222.28277629       0.339154306611109                    1007       0.365454297488797    0.000259328014680417    0.000303117058015859        28.7976802377577 
                    7.9                    0.15   1.90063354451484E-005        1.11388129412671        2.32199214847562   2.11729095343332E-009   6.42333566922384E-006        2.32199214847562      0.0067132405288309       -4498.60374145508       -2546.94108611155   1.83752927881367E-005      0.0176955681874842        299.051693129023        301224.834032959       0.339609530576571                    1007       0.365909521484071    0.000259846237058532    0.000303523911631707          28.73791263934 
                    7.9                    0.15   2.00066688896299E-005        1.11388569787448        2.44420226155328   2.22872731940349E-009   6.76140596760404E-006        2.44420226155328     0.00706656897771673       -4498.60374145508       -2546.62971865052   1.83752368319225E-005      0.0176587647720149        299.050056994045        301227.385289628       0.340064754542033                    1007       0.366364745479345    0.000260364459436646    0.000303930765247554        28.6781450409222 
                    7.9                    0.15   2.10070023341114E-005        1.11389010162225        2.56641237463095   2.34016368537367E-009   7.09947626598424E-006        2.56641237463095     0.00741989742660257       -4498.60374145508       -2546.31835118949   1.83751808757083E-005      0.0176219613565455        299.048420859067        301229.936546297       0.340519978507495                    1007        0.36681996947462     0.00026088268181476    0.000304337618863402        28.6183774425045 
                    7.9                    0.15   2.20073357785929E-005        1.11389450537002        2.68862248770861   2.45160005134384E-009   7.43754656436444E-006        2.68862248770861     0.00777322587548841       -4498.60374145508       -2546.00698372846   1.83751249194941E-005      0.0175851579410762        299.046784724089        301232.487802966       0.340975202472957                    1007       0.367275193469894    0.000261400904192874     0.00030474447247925        28.5586098440867 
                    7.9                    0.15   2.30076692230744E-005        1.11389890911779        2.81083260078627   2.56303641731402E-009   7.77561686274464E-006        2.81083260078627     0.00812655432437424       -4498.60374145508       -2545.69561626743   1.83750689632799E-005      0.0175483545256068        299.045148589111        301235.039059634       0.341430426438419                    1007       0.367730417465168    0.000261919126570988    0.000305151326095097        28.4988422456689 
                    7.9                    0.15   2.40080026675559E-005        1.11390331286556        2.93304271386394    2.6744727832842E-009   8.11368716112485E-006        2.93304271386394     0.00847988277326008       -4498.60374145508       -2545.38424880641   1.83750130070657E-005      0.0175115511101375        299.043512454133        301237.590316303       0.341885650403881                    1007       0.368185641460442    0.000262437348949102    0.000305558179710945        28.4390746472512 
                    7.9                    0.15   2.50083361120373E-005        1.11390771661333         3.0552528269416   2.78590914925437E-009   8.45175745950505E-006         3.0552528269416     0.00883321122214592       -4498.60374145508       -2545.07288134538   1.83749570508514E-005      0.0174747476946681        299.041876319155        301240.141572972       0.342340874369343                    1007       0.368640865455717    0.000262955571327216    0.000305965033326793        28.3793070488334 
                    7.9                    0.15   2.60086695565188E-005         1.1139121203611        3.17746294001927   2.89734551522455E-009   8.78982775788525E-006        3.17746294001927     0.00918653967103176       -4498.60374145508       -2544.76151388435   1.83749010946372E-005      0.0174379442791988        299.040240184177        301242.692829641       0.342796098334805                    1007       0.369096089450991    0.000263473793705331     0.00030637188694264        28.3195394504157 
                    7.9                    0.15   2.70090030010003E-005        1.11391652410887        3.29967305309693   3.00878188119473E-009   9.12789805626545E-006        3.29967305309693     0.00953986811991759       -4498.60374145508       -2544.45014642332    1.8374845138423E-005      0.0174011408637294        299.038604049199         301245.24408631       0.343251322300267                    1007       0.369551313446265    0.000263992016083445    0.000306778740558488        28.2597718519979 
                    7.9                    0.15   2.80093364454818E-005        1.11392092785664         3.4218831661746    3.1202182471649E-009   9.46596835464565E-006         3.4218831661746     0.00989319656880343       -4498.60374145508       -2544.13877896229   1.83747891822088E-005      0.0173643374482601        299.036967914221        301247.795342979       0.343706546265729                    1007        0.37000653744154    0.000264510238461559    0.000307185594174336        28.2000042535801 
                    7.9                    0.15   2.90096698899633E-005        1.11392533160441        3.54409327925226   3.23165461313508E-009   9.80403865302585E-006        3.54409327925226      0.0102465250176893       -4498.60374145508       -2543.82741150126   1.83747332259946E-005      0.0173275340327907        299.035331779243        301250.346599648       0.344161770231191                    1007       0.370461761436814    0.000265028460839673    0.000307592447790183        28.1402366551624 
                    7.9                    0.15   3.00100033344448E-005        1.11392973535217        3.66630339232992   3.34309097910526E-009   1.01421089514061E-005        3.66630339232992      0.0105998534665751       -4498.60374145508       -2543.51604404023   1.83746772697804E-005      0.0172907306173214        299.033695644265        301252.897856317       0.344616994196653                    1007       0.370916985432088    0.000265546683217787    0.000307999301406031        28.0804690567446 
                    7.9                    0.15   3.10103367789263E-005        1.11393413909994        3.78851350540759   3.45452734507543E-009   1.04801792497863E-005        3.78851350540759      0.0109531819154609       -4498.60374145508        -2543.2046765792   1.83746213135662E-005       0.017253927201852        299.032059509287        301255.449112986       0.345072218162115                    1007       0.371372209427362    0.000266064905595901    0.000308406155021878        28.0207014583269 
                    7.9                    0.15   3.20106702234078E-005        1.11393854284771        3.91072361848525   3.56596371104561E-009   1.08182495481665E-005        3.91072361848525      0.0113065103643468       -4498.60374145508       -2542.89330911817    1.8374565357352E-005      0.0172171237863827         299.03042337431        301258.000369654       0.345527442127577                    1007       0.371827433422637    0.000266583127974015    0.000308813008637726        27.9609338599091 
                    7.9                    0.15   3.30110036678893E-005        1.11394294659548        4.03293373156292   3.67740007701579E-009   1.11563198465467E-005        4.03293373156292      0.0116598388132326       -4498.60374145508       -2542.58194165715   1.83745094011378E-005      0.0171803203709133        299.028787239332        301260.551626323       0.345982666093039                    1007       0.372282657417911     0.00026710135035213    0.000309219862253574        27.9011662614914 
                    7.9                    0.15   3.40113371123708E-005        1.11394735034325        4.15514384464058   3.78883644298596E-009   1.14943901449269E-005        4.15514384464058      0.0120131672621184       -4498.60374145508       -2542.27057419612   1.83744534449236E-005       0.017143516955444        299.027151104354        301263.102882992       0.346437890058501                    1007       0.372737881413185    0.000267619572730244    0.000309626715869421        27.8413986630736 
                    7.9                    0.15   3.50116705568523E-005        1.11395175409102        4.27735395771824   3.90027280895614E-009   1.18324604433071E-005        4.27735395771824      0.0123664957110043       -4498.60374145508       -2541.95920673509   1.83743974887094E-005      0.0171067135399746        299.025514969376        301265.654139661       0.346893114023963                    1007        0.37319310540846    0.000268137795108358    0.000310033569485269        27.7816310646559 
                    7.9                    0.15   3.60120040013338E-005        1.11395615783879        4.39956407079591   4.01170917492632E-009   1.21705307416873E-005        4.39956407079591      0.0127198241598901       -4498.60374145508       -2541.64783927406   1.83743415324952E-005      0.0170699101245053        299.023878834398         301268.20539633       0.347348337989425                    1007       0.373648329403734    0.000268656017486472    0.000310440423101117        27.7218634662381 
                    7.9                    0.15   3.70123374458153E-005        1.11396056158656        4.52177418387357   4.12314554089649E-009   1.25086010400675E-005        4.52177418387357       0.013073152608776       -4498.60374145508       -2541.33647181303   1.83742855762809E-005      0.0170331067090359         299.02224269942        301270.756652999       0.347803561954887                    1007       0.374103553399008    0.000269174239864586    0.000310847276716964        27.6620958678203 
                    7.9                    0.15   3.80126708902968E-005        1.11396496533433        4.64398429695124   4.23458190686667E-009   1.28466713384477E-005        4.64398429695124      0.0134264810576618       -4498.60374145508         -2541.025104352   1.83742296200667E-005      0.0169963032935666        299.020606564442        301273.307909668       0.348258785920349                    1007       0.374558777394283      0.0002696924622427    0.000311254130332812        27.6023282694026 
                    7.9                    0.15   3.90130043347783E-005         1.1139693690821         4.7661944100289   4.34601827283685E-009   1.31847416368279E-005         4.7661944100289      0.0137798095065476       -4498.60374145508       -2540.71373689097   1.83741736638525E-005      0.0169594998780972        299.018970429464        301275.859166337       0.348714009885812                    1007       0.375014001389557    0.000270210684620815     0.00031166098394866        27.5425606709848 
                    7.9                    0.15   4.00133377792597E-005        1.11397377282987        4.88840452310656   4.45745463880702E-009   1.35228119352081E-005        4.88840452310656      0.0141331379554335       -4498.60374145508       -2540.40236942994   1.83741177076383E-005      0.0169226964626279        299.017334294486        301278.410423006       0.349169233851274                    1007       0.375469225384831    0.000270728906998929    0.000312067837564507        27.4827930725671 
                    7.9                    0.15   4.10136712237413E-005        1.11397817657764        5.01061463618423    4.5688910047772E-009   1.38608822335883E-005        5.01061463618423      0.0144864664043193       -4498.60374145508       -2540.09100196892   1.83740617514241E-005      0.0168858930471585        299.015698159508        301280.961679674       0.349624457816736                    1007       0.375924449380106    0.000271247129377043    0.000312474691180355        27.4230254741493 
                    7.9                    0.15   4.20140046682227E-005        1.11398258032541        5.13282474926189   4.68032737074738E-009   1.41989525319685E-005        5.13282474926189      0.0148397948532051       -4498.60374145508       -2539.77963450789   1.83740057952099E-005      0.0168490896316892         299.01406202453        301283.512936343       0.350079681782198                    1007        0.37637967337538    0.000271765351755157    0.000312881544796203        27.3632578757316 
                    7.9                    0.15   4.30143381127042E-005        1.11398698407318        5.25503486233956   4.79176373671755E-009   1.45370228303487E-005        5.25503486233956       0.015193123302091       -4498.60374145508       -2539.46826704686   1.83739498389957E-005      0.0168122862162198        299.012425889552        301286.064193012        0.35053490574766                    1007       0.376834897370654    0.000272283574133271     0.00031328839841205        27.3034902773138 
                    7.9                    0.15   4.40146715571857E-005        1.11399138782095        5.37724497541722   4.90320010268773E-009   1.48750931287289E-005        5.37724497541722      0.0155464517509768       -4498.60374145508       -2539.15689958583   1.83738938827815E-005      0.0167754828007505        299.010789754574        301288.615449681       0.350990129713122                    1007       0.377290121365928    0.000272801796511385    0.000313695252027898         27.243722678896 
                    7.9                    0.15   4.50150050016672E-005        1.11399579156872        5.49945508849489   5.01463646865791E-009   1.52131634271091E-005        5.49945508849489      0.0158997801998627       -4498.60374145508        -2538.8455321248   1.83738379265673E-005      0.0167386793852811        299.009153619596         301291.16670635       0.351445353678584                    1007       0.377745345361203    0.000273320018889499    0.000314102105643745        27.1839550804783 
                    7.9                    0.15   4.60153384461487E-005        1.11400019531649        5.62166520157255   5.12607283462808E-009   1.55512337254893E-005        5.62166520157255      0.0162531086487485       -4498.60374145508       -2538.53416466377   1.83737819703531E-005      0.0167018759698118        299.007517484619        301293.717963019       0.351900577644046                    1007       0.378200569356477    0.000273838241267614    0.000314508959259593        27.1241874820605 
                    7.9                    0.15   4.70156718906302E-005        1.11400459906426        5.74387531465021   5.23750920059826E-009   1.58893040238695E-005        5.74387531465021      0.0166064370976343       -4498.60374145508       -2538.22279720274   1.83737260141388E-005      0.0166650725543424        299.005881349641        301296.269219688       0.352355801609508                    1007       0.378655793351751    0.000274356463645728    0.000314915812875441        27.0644198836428 
                    7.9                    0.15   4.80160053351117E-005        1.11400900281203        5.86608542772788   5.34894556656843E-009   1.62273743222497E-005        5.86608542772788      0.0169597655465202       -4498.60374145508       -2537.91142974172   1.83736700579246E-005      0.0166282691388731        299.004245214663        301298.820476357        0.35281102557497                    1007       0.379111017347026    0.000274874686023842    0.000315322666491288         27.004652285225 
                    7.9                    0.15   4.90163387795932E-005         1.1140134065598        5.98829554080554   5.46038193253861E-009   1.65654446206299E-005        5.98829554080554       0.017313093995406       -4498.60374145508       -2537.60006228069   1.83736141017104E-005      0.0165914657234037        299.002609079685        301301.371733026       0.353266249540432                    1007         0.3795662413423    0.000275392908401956    0.000315729520107136        26.9448846868072 
                    7.9                    0.15   5.00166722240747E-005        1.11401781030757        6.11050565388321   5.57181829850879E-009   1.69035149190101E-005        6.11050565388321      0.0176664224442918       -4498.60374145508       -2537.28869481966   1.83735581454962E-005      0.0165546623079344        299.000972944707        301303.922989695       0.353721473505894                    1007       0.380021465337574     0.00027591113078007    0.000316136373722984        26.8851170883895 
                    7.9                    0.15   5.10170056685562E-005        1.11402221405534        6.23271576696087   5.68325466447896E-009   1.72415852173903E-005        6.23271576696087      0.0180197508931777       -4498.60374145508       -2536.97732735863    1.8373502189282E-005       0.016517858892465        298.999336809729        301306.474246364       0.354176697471356                    1007       0.380476689332848    0.000276429353158184    0.000316543227338831        26.8253494899717 
                    7.9                    0.15   5.20173391130377E-005        1.11402661780311        6.35492588003853   5.79469103044914E-009   1.75796555157705E-005        6.35492588003853      0.0183730793420635       -4498.60374145508        -2536.6659598976   1.83734462330678E-005      0.0164810554769957        298.997700674751        301309.025503032       0.354631921436818                    1007       0.380931913328123    0.000276947575536298    0.000316950080954679         26.765581891554 
                    7.9                    0.15   5.30176725575192E-005        1.11403102155088         6.4771359931162   5.90612739641932E-009   1.79177258141507E-005         6.4771359931162      0.0187264077909493       -4498.60374145508       -2536.35459243657   1.83733902768536E-005      0.0164442520615263        298.996064539773        301311.576759701        0.35508714540228                    1007       0.381387137323397    0.000277465797914413    0.000317356934570527        26.7058142931362 
                    7.9                    0.15   5.40180060020007E-005        1.11403542529865        6.59934610619386    6.0175637623895E-009   1.82557961125309E-005        6.59934610619386      0.0190797362398352       -4498.60374145508       -2536.04322497554   1.83733343206394E-005       0.016407448646057        298.994428404795         301314.12801637       0.355542369367742                    1007       0.381842361318671    0.000277984020292527    0.000317763788186374        26.6460466947185 
                    7.9                    0.15   5.50183394464822E-005        1.11403982904642        6.72155621927153   6.12900012835967E-009   1.85938664109111E-005        6.72155621927153       0.019433064688721       -4498.60374145508       -2535.73185751452   1.83732783644252E-005      0.0163706452305876        298.992792269817        301316.679273039       0.355997593333204                    1007       0.382297585313946    0.000278502242670641    0.000318170641802222        26.5862790963007 
                    7.9                    0.15   5.60186728909637E-005        1.11404423279419        6.84376633234919   6.24043649432985E-009   1.89319367092913E-005        6.84376633234919      0.0197863931376069       -4498.60374145508       -2535.42049005349    1.8373222408211E-005      0.0163338418151183        298.991156134839        301319.230529708       0.356452817298666                    1007        0.38275280930922    0.000279020465048755    0.000318577495418069         26.526511497883 
                    7.9                    0.15   5.70190063354452E-005        1.11404863654196        6.96597644542686   6.35187286030003E-009   1.92700070076715E-005        6.96597644542686      0.0201397215864927       -4498.60374145508       -2535.10912259246   1.83731664519968E-005      0.0162970383996489        298.989519999861        301321.781786377       0.356908041264128                    1007       0.383208033304494    0.000279538687426869    0.000318984349033917        26.4667438994652 