VARIABLES = "X"
 "Y"
 "Z"
 "RHO"
 "U"
 "V"
 "W"
 "VelocityMagnitude"
 "Mach"
 "P"
 "P_tot"
 "Vislam"
 "SkinFrictionCoefficient"
 "T"
 "H0"
 "COND_TURB"
 "CP"
 "COND_eff"
 "Ywall"
 "VIS_T"
 "YPLUS"
ZONE
DT=(DOUBLE,DOUBLE,DOUBLE,DOUBLE,DOUBLE,DOUBLE,DOUBLE,DOUBLE,DOUBLE,DOUBLE,DOUBLE,DOUBLE,DOUBLE,DOUBLE,DOUBLE,DOUBLE,DOUBLE,DOUBLE,DOUBLE,DOUBLE,DOUBLE)
                    7.9                    0.15                       0        1.11379762291908                       0                       0                       0                       0                       0       -4498.60374145508       -2552.85706787109   1.83763559562067E-005      0.0183948330814019        299.082779693603         301176.36015625       0.330960275232792                    1007       0.357260265573859    0.000250000011874363    0.000295793692930601        29.8734970092773 
                    7.9                    0.15    0.000233488992661774        1.11482546577371        28.5245922888845   2.47834185341721E-008   7.86448420125284E-005        28.5245922888845      0.0824690277503153       -4498.60374145508       -2480.18305984303   1.83632955685892E-005     0.00980482885723133        298.700905033363        301771.826843286       0.437215013418351                    1007       0.463515014137421    0.000370958899841344    0.000390758209188467        15.9232299229426 
                    7.9                    0.15    0.000466977985323549        1.11585329681873        57.0490083471532   4.92136839698531E-008    0.000157213549249156        57.0490083471532       0.164937544243679       -4498.60374145508        -2407.5098096444   1.83502353011051E-005     0.00121491781812838        298.319035411883        302367.286306757       0.543469861826776                    1007       0.569769873907982    0.000491917787808325    0.000485722823475179         1.9730081854142 
                    7.9                    0.15    0.000700466977985324        1.11692916886568        62.3679513015572    5.7124618873552E-008    0.000240596606278799        62.3679513015572         0.1803932555139       -4498.60355887888       -2304.53717737501   1.83365696710484E-005                       0         298.09476955474        302281.090455206       0.744839077159552                    1007       0.771139098355921    0.000709733488051851    0.000665695305468549   1.22433330622755E-005 
                    7.9                    0.15    0.000933955970647098        1.11801289102003        63.8642107165473   6.23224557457941E-008    0.000324440218086041        63.8642107165473       0.184809804775012       -4498.60334622772       -2196.57839822055   1.83228052465451E-005                       0        297.896482783355         302082.61765165       0.961878007014448                    1007       0.988178051372225     0.00094350397101644    0.000859672497570821   3.72681481701259E-006 
                    7.9                    0.15     0.00116744496330887        1.11859939282162        65.0048547223592   6.50358072421296E-008    0.000409084502991116        65.0048547223592       0.188158493241193       -4498.60319740309       -2112.90000528197   1.83153605754802E-005                       0         297.78208374866        301997.452852416        1.18252607410622                    1007          1.208826118464     0.00117727364688817     0.00105687533705132                       0 
                    7.9                    0.15     0.00140093395597065        1.11879893136022        65.8687453313447   6.65179642538774E-008    0.000493466118868241        65.8687453313447        0.19067612550572       -4498.60319519043       -2048.12452938144   1.83128345159319E-005                       0        297.732972900634        302000.461225597        1.40599498612519                    1007        1.43229498314356     0.00141104269479285     0.00125659926432663                       0 
                    7.9                    0.15     0.00163442294863242        1.11899238455576        66.7057069309474   6.76486300325429E-008    0.000578486943910202        66.7057069309474       0.193115357668375       -4498.60312791968       -1985.22519297875   1.83103855233325E-005                       0        297.685223737029        302003.464722744        1.62861583175049                    1007        1.65491581579081     0.00164481176008533     0.00145556525634965                       0 
                    7.9                    0.15      0.0018679119412942        1.11913117489319        67.3012074069372   6.77388271648967E-008    0.000665979445365866        67.3012074069372       0.194851595233226         -4498.602991638       -1939.16753664178   1.83086290184016E-005                       0        297.649673331934        302006.388850503        1.84370797909029                    1007        1.87000801778571     0.00187858098114781     0.00164780253984758                       0 
                    7.9                    0.15     0.00210140093395597         1.1192699553214        67.8966939307336   6.79246098788961E-008    0.000753237207462483        67.8966939307336       0.196587790683858       -4498.60281476813       -1893.11193000886   1.83068725134708E-005                       0        297.614122926839        302009.312978263        2.05880923301083                    1007        2.08510935608904      0.0021123502022103     0.00184004798104024                       0 
                    7.9                    0.15     0.00233488992661774        1.11939379925863        68.4255683038761    6.7783519203187E-008    0.000842362359812767        68.4255683038761       0.198130001510532       -4498.60268539971       -1851.83526079165    1.8305305640005E-005                       0        297.582215763381        302012.067610062        2.26976686867055                    1007        2.29606698451797     0.00234611882291886     0.00202859005822492                       0 
                    7.9                    0.15     0.00256837891927952        1.11950012047682        68.8764178229541   6.75899774781517E-008    0.000932678669550302        68.8764178229541       0.199444991239349       -4498.60251286664       -1816.16030327005   1.83039609688198E-005                       0        297.554576982162        302014.628213944        2.47592212607069                    1007        2.50222216657822     0.00257988674095996     0.00221284004755499                       0 
                    7.9                    0.15     0.00280186791194129        1.11960644362013        69.3272704222325   6.73851293303491E-008     0.00102304404366308        69.3272704222325       0.200759989631229       -4498.60234033357       -1780.48495739676   1.83026162682595E-005                       0        297.526937708111        302017.188313165        2.68207445728038                    1007        2.70837442629826     0.00281365465900105     0.00239708742179786                       0 
                    7.9                    0.15     0.00303535690460307        1.11970004616639        69.7210452209923    6.7098854988398E-008     0.00111560671426999        69.7210452209923        0.20190873382052       -4498.60217511567       -1748.98898964052   1.83014329115207E-005                       0        297.502502959372        302019.509514988        2.88171002736081                    1007        2.90800998082151     0.00304742208937335     0.00257551047334587                       0 
                    7.9                    0.15     0.00326884589726484        1.11978617274718        70.0813515222945   6.68743402650973E-008     0.00120874712993083        70.0813515222945       0.202959989694941       -4498.60201418171       -1719.94596248633   1.83003441728164E-005                       0        297.479951636066        302021.693066951        3.07758148625983                    1007        3.10388143972052     0.00328118923415508     0.00275056936665541                       0 
                    7.9                    0.15     0.00350233488992662        1.11987230379305        70.4416649677351   6.66351053441313E-008     0.00130200989070667        70.4416649677351       0.204011267336659       -4498.60185324775       -1690.90202088241   1.82992554341122E-005                       0        297.457399169699        302023.876618914        3.27344315768918                    1007        3.29974311114987     0.00351495637893681     0.00292561951293021                       0 
                    7.9                    0.15     0.00373582388258839        1.11995018498814        70.7651314911712   6.63956647772796E-008     0.00139750407709709        70.7651314911712       0.204955209595466       -4498.60160919763       -1664.59799657832   1.82982712238846E-005                       0        297.436964826854        302025.878074498        3.46258664265756                    1007        3.48888659611826     0.00374872339216152     0.00309466531742339                       0 
                    7.9                    0.15     0.00396931287525017        1.12002249440187        71.0636428630184   6.62105690110278E-008     0.00149381301218409        71.0636428630184       0.205826455829018       -4498.60130895175       -1640.15155016789   1.82973579169632E-005                       0        297.417964892368        302027.752453597        3.64725177688968                    1007        3.67355173035038     0.00398249031643908     0.00325970860699445                       0 
                    7.9                    0.15     0.00420280186791194        1.12009480490239         71.362152217798    6.6027242376587E-008     0.00159008989356636         71.362152217798       0.206697696221115       -4498.60100870587       -1615.70533634622   1.82964446266248E-005                       0        297.398964957883        302029.626547802        3.83192007800491                    1007         3.8582200314656     0.00421625724071664     0.00342475472601974                       0 
                    7.9                    0.15     0.00443629086057372        1.12016363528673        71.6453048953682    6.5842363933121E-008     0.00168801489581979        71.6453048953682       0.207524190297866       -4498.60076358139       -1592.41471727168    1.8295574898236E-005                       0        297.380861660854        302031.422950402        4.01248858253761                    1007        4.03878853599831     0.00445002355154379     0.00358613671568501                       0 
                    7.9                    0.15     0.00466977985323549        1.12022584464339        71.8991084695595   6.57099339442769E-008     0.00178789103338351        71.8991084695595       0.208265166548463       -4498.60062353645       -1571.33563482137      1.82947886842E-005                       0        297.364472166689        302033.063156729        4.18536367381569                    1007        4.21166362727638     0.00468378869293242     0.00374064284382153                       0 
                    7.9                    0.15     0.00490326884589726        1.12028803745205        72.1528961576709   6.55823498323185E-008      0.0018875041159263        72.1528961576709       0.209006095223561       -4498.60048349151       -1550.25841633777   1.82940024701641E-005                       0        297.348086908812        302034.703363056        4.35826898174147                    1007        4.38456893520216     0.00491755383432104     0.00389517600789921                       0 
                    7.9                    0.15     0.00513675783855904         1.1203502536998        72.4067063473184   6.54479018700952E-008     0.00198748979775662        72.4067063473184       0.209747091286071       -4498.60034344657       -1529.17855767393   1.82932162561281E-005                       0        297.331695650525        302036.343569383        4.53113148987059                    1007        4.55743144333128     0.00515131897570967      0.0040496708774316                       0 
                    7.9                    0.15     0.00537024683122081         1.1204059207136        72.6315694794114   6.53561638050363E-008     0.00209079205465501        72.6315694794114       0.210403727603602       -4498.60021145568       -1510.30157853663   1.82925130274708E-005                       0        297.317007675153        302037.814162151        4.69362579947879                    1007        4.71992575293948     0.00538508395714144     0.00419489913131441                       0 
                    7.9                    0.15     0.00560373582388259        1.12046049733944        72.8515867036642   6.52714793645807E-008     0.00219408636226217        72.8515867036642       0.211046241928404       -4498.60008080351       -1491.79461794684   1.82918238285076E-005                       0        297.302603273632        302039.260616998        4.85446811291072                    1007        4.88076806637141     0.00561884891198549     0.00433865081167761                       0 
                    7.9                    0.15     0.00583722481654436        1.12051507396528        73.0716031762364   6.51867818351791E-008     0.00229736845633913        73.0716031762364       0.211688754073262       -4498.59995015134       -1473.28774154526   1.82911346349752E-005                       0         297.28819887211        302040.707165145        5.01531199376746                    1007        5.04161194722816     0.00585261386682955     0.00448240389065337                       0 
                    7.9                    0.15     0.00607071380920614         1.1205689300786        73.2884838839923   6.51068452153506E-008     0.00240166551736869        73.2884838839923       0.212322126160538       -4498.59980589839       -1455.02044277677   1.82904543570216E-005                       0         297.27398424007        302042.131380109        5.17462463077122                    1007        5.20092459138687     0.00608637862930274     0.00462478853504349                       0 
                    7.9                    0.15     0.00630420280186791         1.1206175104898        73.4821647577805   6.50565086226857E-008     0.00250932338968845        73.4821647577805       0.212887879237933       -4498.59956210585       -1438.53455731619   1.82898411346869E-005                       0         297.26115911045        302043.421846718        5.32325357731403                    1007        5.34955358739914      0.0063201419838781     0.00475762473146388                       0 
                    7.9                    0.15     0.00653769179452969        1.12066607853365        73.6758179286717    6.5001326727434E-008     0.00261652277577948        73.6758179286717       0.213453550381536       -4498.59931831332       -1422.05177458006   1.82892281010632E-005                       0        297.248337146876        302044.709071297        5.47194619105024                    1007        5.49824620113535     0.00655390533845347     0.00489051783708584                       0 
                    7.9                    0.15     0.00677118078719146        1.12071464755743        73.8694732946352   6.49465287555487E-008     0.00272375849057718        73.8694732946352       0.214019228017261       -4498.59907452079       -1405.56874599584   1.82886150524868E-005                       0        297.235514932436        302045.996552761        5.62063376003997                    1007        5.64693377404484     0.00678766869302883     0.00502340643343891                       0 
                    7.9                    0.15     0.00700466977985324        1.12076267841913        74.0607407543797   6.48994005482633E-008     0.00283198721049437        74.0607407543797       0.214577947259807       -4498.59883259712       -1389.26936852651   1.82880087730827E-005                       0        297.222834279917         302047.27236305        5.76786355558774                    1007         5.7941636159385     0.00702143189078962     0.00515499214826971                       0 
                    7.9                    0.15     0.00723815877251501        1.12080643985412         74.233297108054   6.48687018903472E-008     0.00294385748128336         74.233297108054       0.215082131691196       -4498.59860512651       -1374.41759198543   1.82874565041157E-005                       0        297.211275929737        302048.429733494        5.90438066545806                    1007        5.93068067554316     0.00725519387580944     0.00527700348416018                       0 
                    7.9                    0.15     0.00747164776517678        1.12085020128911        74.4058229002083   6.48306568769524E-008     0.00305522404011291        74.4058229002083       0.215586228157685       -4498.59837765591       -1359.56913539052   1.82869044268969E-005                       0        297.199717579557        302049.587103939         6.0409717663765                    1007        6.06727177646161     0.00748895586082925     0.00539908094098904                       0 
                    7.9                    0.15     0.00770513675783856         1.1208939627241        74.5783486923628   6.47926118635576E-008     0.00316659059894245        74.5783486923628       0.216090324624174        -4498.5981501853        -1344.7206787956   1.82863523496781E-005                       0        297.188159229377        302050.744474383        6.17756286729495                    1007        6.20386287738006     0.00772271784584907     0.00552115839781791                       0 
                    7.9                    0.15     0.00793862575050034        1.12093772415909        74.7509028804593   6.47613926456679E-008     0.00327842517689232        74.7509028804593       0.216594502822404       -4498.59792271469       -1329.86913750465   1.82858000942983E-005                       0        297.176600879197        302051.901844828        6.31408522014299                    1007        6.34038518352424     0.00795647983086889     0.00564317441901309                       0 
                    7.9                    0.15     0.00817211474316211        1.12097821979867        74.9092510848328   6.47384116791652E-008     0.00339396251760082        74.9092510848328       0.217057262940921       -4498.59770773939       -1316.12382625673   1.82852890219193E-005                       0        297.165898096555        302052.967744659        6.44076491116981                    1007         6.4670648646305     0.00819024142135698      0.0057563936053187                       0 
                    7.9                    0.15     0.00840560373582388        1.12101799572643        75.0644849260393   6.47104598059894E-008     0.00350987651442142        75.0644849260393       0.217510940956613       -4498.59749548167       -1302.62185343024   1.82847869136819E-005                       0        297.155383806358        302054.013750714        6.56536941077482                    1007        6.59166936423551     0.00842400292603909     0.00586775816062599                       0 
                    7.9                    0.15     0.00863909272848565          1.121057768139        75.2197099933264   6.46800942420011E-008      0.0036256380603848        75.2197099933264       0.217964592608365       -4498.59728322394       -1289.12085608358   1.82842848054445E-005                       0        297.144870416049         302055.05975677        6.68999723719411                    1007         6.7162971906548      0.0086577644307212     0.00597914358738592                       0 
                    7.9                    0.15     0.00887258172114743        1.12109754460948        75.3749451891798   6.46525150300086E-008     0.00374157559481699        75.3749451891798       0.218418274694512       -4498.59707096622       -1275.61873264812   1.82837826972071E-005                       0        297.134355986914        302056.105762825        6.81459813526153                    1007        6.84089808872222     0.00889152593540331     0.00609050492025055                       0 
                    7.9                    0.15     0.00910607071380921        1.12113659714336        75.5270190446562   6.46313482326859E-008     0.00385891570242301        75.5270190446562       0.218862742178619        -4498.5968618359       -1262.36355273172    1.8283289899071E-005                       0        297.124033819697        302057.130765779        6.93654216243635                    1007        6.96284211589704     0.00912528694858354     0.00619949163038875                       0 
                    7.9                    0.15     0.00933955970647098         1.1211730582459        75.6678389813203   6.46108151321946E-008     0.00397982125273366        75.6678389813203       0.219274399834974       -4498.59666375953       -1249.99010568762   1.82828300170283E-005                       0         297.11439941443        302058.081532389        7.04930849501371                    1007         7.0756084484744     0.00935904622452972     0.00630027582116819                       0 
                    7.9                    0.15     0.00957304869913276        1.12120949636848        75.8086295036216   6.45818932244461E-008     0.00410018742452979        75.8086295036216       0.219685969880191       -4498.59646568315       -1237.61998834936   1.82823703103088E-005                       0        297.104767950599        302059.032298998        7.16215989944308                    1007        7.18845985290377     0.00959280550047591     0.00640113595356998                       0 
                    7.9                    0.15     0.00980653769179453        1.12124593449105         75.949420025923   6.45529713166976E-008     0.00422055359632593         75.949420025923       0.220097539925408       -4498.59626760677        -1225.2498710111   1.82819106035894E-005                       0        297.095136486768        302059.983065608        7.27501130387244                    1007        7.30131125733314     0.00982656477642209     0.00650199608597177                       0 
                    7.9                    0.15      0.0100400266844563        1.12128238376576        76.0902248229548   6.45281204800505E-008      0.0043411815274182        76.0902248229548       0.220509152488132        -4498.5960695304       -1212.87813777337   1.82814508117859E-005                       0        297.085503595464        302060.933832217        7.38782142310505                    1007        7.41412137656574      0.0100603240523683     0.00660281936405869                       0 
                    7.9                    0.15      0.0102735156771181         1.1213180251291        76.2274944489978   6.45072217777493E-008      0.0044635098608746        76.2274944489978       0.220910458505396        -4498.5958752909        -1200.7843096184   1.82810012783777E-005                       0        297.076084173696        302061.861030074        7.49722529515511                    1007        7.52352522241259      0.0102940831381754     0.00670059838633957                       0 
                    7.9                    0.15      0.0105070046697799         1.1213516591065        76.3560796175583   6.44840589215503E-008     0.00458922727119119        76.3560796175583       0.221286442977493       -4498.59569043156       -1189.37462416439   1.82805770670919E-005                       0        297.067190809628        302062.730608382        7.59842296203101                    1007        7.62472279902514      0.0105278417591414     0.00679104317681526                       0 
                    7.9                    0.15      0.0107404936624416        1.12138528220319         76.484634842429    6.4452778934546E-008     0.00471439159336191         76.484634842429       0.221662339043893       -4498.59550557223       -1177.96822555262   1.82801528558062E-005                       0        297.058300231019        302063.600186691        7.69970972008873                    1007        7.72600946681951      0.0107616003801074     0.00688156761742431                       0 
                    7.9                    0.15      0.0109739826551034        1.12141890529988        76.6131900672996   6.44214989475416E-008     0.00483955591553263        76.6131900672996       0.222038235110293       -4498.59532071289       -1166.56182694084   1.82797286445204E-005                       0         297.04940965241           302064.469765        7.80099647814644                    1007        7.82729613461388      0.0109953590010734     0.00697209205803335                       0 
                    7.9                    0.15      0.0112074716477652        1.12145253135511        76.7417534340549   6.43924260613616E-008     0.00496487062597871        76.7417534340549       0.222414155214779       -4498.59513585356       -1155.15453461522   1.82793044332347E-005                       0        297.040518316416        302065.339343308        7.90225901173057                    1007        7.92855857793466      0.0112291176220394     0.00706259484125148                       0 
                    7.9                    0.15       0.011440960640427        1.12148614734351        76.8702601517348   6.43695343031919E-008     0.00509064610150297        76.8702601517348       0.222789910975303       -4498.59495043484       -1143.75102728852   1.82788804540549E-005                       0        297.031629741029        302066.208357909        8.00336753221876                    1007        8.02966700884229      0.0114628762236658     0.00715295995671853                       0 
                    7.9                    0.15      0.0116744496330887        1.12151735044835        76.9883290778194    6.4342842976598E-008     0.00522135719146806        76.9883290778194        0.22313523156634       -4498.59469162705       -1133.17401629386   1.82784869266213E-005                       0        297.023382938392        302067.003415464        8.09321233905009                    1007        8.11951181567363      0.0116966322879764     0.00723325819310584                       0 
                    7.9                    0.15      0.0119079386257505         1.1215485465678        77.1063783330464   6.43108759312102E-008     0.00535168389398912        77.1063783330464       0.223480495401085       -4498.59443281925       -1122.59920128222   1.82780935057762E-005                       0        297.015137924015        302067.798473018        8.18312001438935                    1007        8.20941949101288      0.0119303883522871     0.00731361264005144                       0 
                    7.9                    0.15      0.0121414276184123        1.12157973914173        77.2244176040709   6.42762311253398E-008     0.00548181549560586        77.2244176040709       0.223825730428427       -4498.59417401145       -1112.02550087065   1.82777001390316E-005                       0        297.006893817292        302068.593530573        8.27305959946692                    1007        8.29935907609045      0.0121641444165977     0.00739399561740543                       0 
                    7.9                    0.15       0.012374916611074        1.12161093171565        77.3424568750954   6.42415863194693E-008     0.00561194709722259        77.3424568750954        0.22417096545577       -4498.59391520365       -1101.45180045908    1.8277306772287E-005                       0         296.99864971057        302069.388588128        8.36299918454448                    1007        8.38929866116802      0.0123979004809084     0.00747437859475942                       0 
                    7.9                    0.15      0.0126084056037358        1.12164213157528        77.4605166626511   6.42124440418344E-008     0.00574247961155792        77.4605166626511       0.224516259679425       -4498.59365639585       -1090.87580965656   1.82769132943715E-005                       0        296.990403738708        302070.183645682        8.45287319832201                    1007        8.47917267494554       0.012631656545219     0.00755470294499619                       0 
                    7.9                    0.15      0.0128418945963976        1.12167259575425        77.5754035226306   6.41841771418102E-008     0.00587496836271652        77.5754037413119       0.224852301016264       -4498.59340357523       -1080.55203823711   1.82765290792105E-005                       0        296.982352962984        302070.954936351        8.53884854088186                    1007        8.56514804484055      0.0128654122167483     0.00763154286916006                       0 
                    7.9                    0.15      0.0130753835890594        1.12170167304608        77.6843179748558   6.41529530540151E-008     0.00601079359939939        77.6843188226604        0.22517092615624       -4498.59316199188       -1070.70357121194   1.82761623422187E-005                       0        296.974670109428        302071.681619042        8.61756130068659                    1007         8.6438608832857      0.0130991671510676       0.007701891900282                       0 
                    7.9                    0.15      0.0133088725817211        1.12173075033791        77.7932067349057   6.41148117331795E-008     0.00614608752016781        77.7932076408963       0.225489474353503       -4498.59292040854       -1060.85799084541   1.82757957413489E-005                       0         296.96698953962        302072.408301733        8.69636198482471                    1007        8.72266157469707       0.013332922085387     0.00777231951193697                       0 