VARIABLES = "X"
 "Y"
 "Z"
 "RHO"
 "U"
 "V"
 "W"
 "VelocityMagnitude"
 "Mach"
 "P"
 "P_tot"
 "Vislam"
 "SkinFrictionCoefficient"
 "T"
 "H0"
 "COND_TURB"
 "CP"
 "COND_eff"
 "Ywall"
 "VIS_T"
 "YPLUS"
ZONE
DT=(DOUBLE,DOUBLE,DOUBLE,DOUBLE,DOUBLE,DOUBLE,DOUBLE,DOUBLE,DOUBLE,DOUBLE,DOUBLE,DOUBLE,DOUBLE,DOUBLE,DOUBLE,DOUBLE,DOUBLE,DOUBLE,DOUBLE,DOUBLE,DOUBLE)
                    7.9                    0.15                       0        1.11340290606022                       0                       0                       0                       0                       0       -4497.50758056641       -3577.01562194824   1.83815509672058E-005     0.00804132758639753        299.192245864868        301286.578515625      0.0685831912793219                    1007      0.0948831894434989   9.99999974737875E-005   6.12958004239772E-005        15.6805625915527 
                    7.9                    0.15    0.000233488992661774        1.11443918603139        44.7488980286209   1.13336527537331E-008   6.52811901735427E-005        44.7488980286209       0.129285986681046       -4497.50754343354       -3369.20826478713   1.83683539098822E-005                       0        298.783710713775        302014.582212962       0.296014408018923                    1007       0.322314397785579    0.000238610874118261    0.000264561038485922   6.65488989811234E-006 
                    7.9                    0.15    0.000466977985323549        1.11552491744282        49.5616144322149   1.45800113939316E-008    0.000138874966428615        49.5616144322149       0.143259586613488       -4497.50728318975       -3118.24728616888   1.83545318527235E-005                       0        298.604870619546         301943.50969816        0.63347297245317                    1007       0.659772962214724    0.000472636458966479    0.000566162523959665                       0 
                    7.9                    0.15    0.000700466977985324        1.11599367758455        52.1363753452431   1.64746264790169E-008    0.000209020629578676        52.1363753452431        0.15073349856061       -4497.50709228516       -2971.03819867852   1.83485725744016E-005                       0        298.487967561779         301947.20166784        0.93762994278587                    1007       0.963929964315576    0.000706660586742063    0.000838000933872207                       0 
                    7.9                    0.15    0.000933955970647098        1.11632525784959        53.9713516010243   1.76422461855808E-008    0.000283213225824733        53.9713516010243       0.156061742993056       -4497.50708471313       -2861.17198462944   1.83443598999033E-005                       0        298.402440100682        301954.780740339        1.24332373702431                    1007        1.26962380876997    0.000940684530368644     0.00111121289941593                       0 
                    7.9                    0.15     0.00116744496330887        1.11657895226923        55.3358954560927   1.82370710281932E-008    0.000359498387927395        55.3358954560927       0.160025685145805       -4497.50669654266       -2776.35886132942   1.83411388514366E-005                       0        298.336099723105        301961.203023186        1.54638464474985                    1007        1.57268466762131     0.00117470677856577     0.00138207168658075                       0 
                    7.9                    0.15     0.00140093395597065        1.11679379468988        56.4708742294361   1.85052890813545E-008    0.000437045951155795        56.4708742294361       0.163323656756117       -4497.50660400391       -2704.25972847742   1.83384118067213E-005                       0        298.279625981323        301966.833399777        1.84719574704363                    1007        1.87349578991598     0.00140872801502851     0.00165091976284777                       0 
                    7.9                    0.15     0.00163442294863242        1.11698306036084        57.4561476502213   1.85541170709857E-008    0.000515633404796495        57.4561476502213       0.166187265122473       -4497.50648317693        -2640.5887464283   1.83360099705322E-005                       0        298.229719228831        301971.903428483        2.14595820308547                    1007        2.17225824327644     0.00164274861318742     0.00191793684012512                       0 
                    7.9                    0.15      0.0018679119412942        1.11715016350514        58.3128124010546   1.84083878787498E-008    0.000595254654297038        58.3128124010546       0.168677668547818       -4497.50616273944       -2584.26713259846   1.83338899190641E-005                       0        298.185558937214        301976.456204343        2.44250012469123                    1007        2.46880008963063     0.00187676868003453     0.00218296925267816                       0 
                    7.9                    0.15     0.00210140093395597        1.11729481163004         59.041774994993   1.80742448542096E-008    0.000676356175645608         59.041774994993       0.170797400058916       -4497.50598629078       -2535.43723462541   1.83320549519505E-005                       0        298.147254814881        301980.439874569        2.73537241936385                    1007        2.76167237282454     0.00211078679185374     0.00244472205165756                       0 
                    7.9                    0.15     0.00233488992661774        1.11743203038849        59.7288681553498   1.76816631781605E-008    0.000758040947127919        59.7288681553498       0.172795584983441       -4497.50584214947       -2489.09042265892   1.83303143203292E-005                       0        298.110897161561        301984.231485723        3.02671190340279                    1007        3.05301186825461     0.00234480438589365     0.00270510494340626                       0 
                    7.9                    0.15     0.00256837891927952        1.11755257637537        60.3229526819854   1.71642430119433E-008    0.000841203044089339        60.3229526819854       0.174523730076411       -4497.50571594956        -2448.3255223896     1.832878544179E-005                       0        298.078929347781        301987.584583591        3.31384141186473                    1007        3.34014143833761     0.00257882113165829     0.00296172527072001                       0 
                    7.9                    0.15     0.00280186791194129        1.11766783285787        60.8879777152173   1.66164388758276E-008    0.000925018379377754        60.8879777152173       0.176167484902932       -4497.50554783551       -2409.33974172084   1.83273240497778E-005                       0        298.048354058104        301990.793194694        3.59898830495554                    1007        3.62528835521026     0.00281283708521411     0.00321657357430713                       0 
                    7.9                    0.15     0.00303535690460307        1.11777239950113         61.394270992509    1.6004250754319E-008     0.00101010602377505         61.394270992509       0.177640679535217       -4497.50530734984       -2373.94997886479   1.83259990448584E-005                       0        298.020592994057        301993.709414224        3.88013120199745                    1007        3.90643119652008     0.00304685143775321     0.00346784317833945                       0 
                    7.9                    0.15     0.00326884589726484        1.11787308492583        61.8795723140815   1.53783994154226E-008     0.00109583837635281        61.8795723140815       0.179052898191652        -4497.5050734474       -2339.86863682991   1.83247232858758E-005                       0        297.993860891832        301996.523052222         4.1591979230913                    1007         4.1854979086383     0.00328086510869011     0.00371725728441375                       0 
                    7.9                    0.15     0.00350233488992662        1.11796473957621        62.3160332087308    1.4716726766002E-008     0.00118301226114885        62.3160332087308       0.180323248682018       -4497.50485486018       -2308.83178136107   1.83235620928601E-005                       0         297.96952295245        301999.097135332        4.43343903368863                    1007        4.45973913192814     0.00351487719394461     0.00396235869870471                       0 
                    7.9                    0.15     0.00373582388258839        1.11805568310231        62.7487154850706   1.40556541231238E-008     0.00127035779214687        62.7487154850706       0.181582621535402       -4497.50463760137       -2278.03420568616   1.83224098857617E-005                       0        297.945373204378        302001.650476494        4.70715476317516                    1007        4.73345496749807     0.00374888915791627     0.00420699054819784                       0 
                    7.9                    0.15     0.00396931287525017        1.11813667452199        63.1286070125247   1.33836130832908E-008     0.00135983729138386        63.1286070125247       0.182688624984113       -4497.50443889465       -2250.58083673576   1.83213831726252E-005                       0        297.923856993264        302003.914143352        4.97355652410386                    1007        4.99985682545153     0.00398289942809724     0.00444508552293851                       0 
                    7.9                    0.15     0.00420280186791194        1.11821766445155        63.5084969187324   1.27099065423874E-008     0.00144929586060118        63.5084969187324       0.183794623589946       -4497.50424018794       -2223.12765394259   1.83203564594887E-005                       0        297.902341163619        302006.177810211        5.23996056789045                    1007        5.26626096030242     0.00421690969827822     0.00468318253494732                       0 
                    7.9                    0.15     0.00443629086057372        1.11829327085995        63.8600397856824   1.20487388841401E-008     0.00154031108886465        63.8600397856824       0.184818251628024       -4497.50399742632       -2197.49667085896   1.83193986956144E-005                       0        297.882253718709        302008.287950719        5.50101576463942                    1007        5.52731614117056      0.0044509178760957     0.00491649898072874                       0 
                    7.9                    0.15     0.00466977985323549        1.11836542749212        64.1934200099141    1.1392593813842E-008     0.00163228687744195        64.1934200099141       0.185789102651578       -4497.50372033849       -2173.03335933236   1.83184851251419E-005                       0        297.863081578046        302010.299738314        5.75864881943049                    1007        5.78494911371105     0.00468492471349149     0.00514675686177083                       0 
                    7.9                    0.15     0.00490326884589727         1.1184375841243        64.5268019984432    1.0738391922495E-008     0.00172428593307649        64.5268019984432       0.186759958890538       -4497.50344935417       -2148.56984333798    1.8317571531932E-005                       0        297.843909437382        302012.311525908        6.01627887014746                    1007        6.04257907621698     0.00491893155088729     0.00537701205943975                       0 
                    7.9                    0.15     0.00513675783855904        1.11850298821626        64.8250910184345   1.01229155319038E-008     0.00181881141253716        64.8250910184345       0.187628819376314       -4497.50320065637       -2126.39274294106   1.83167433401259E-005                       0        297.826537484019        302014.138793542        6.26513889262766                    1007        6.29143909046739     0.00515293655324171     0.00559942909352282                       0 
                    7.9                    0.15     0.00537024683122081        1.11856769600581        65.1197670944451   9.50920409947211E-009     0.00191357096268386        65.1197670944451       0.188487178902505       -4497.50296035529       -2104.45112627865   1.83159239358196E-005                       0        297.809350763508        302015.947074731        6.51310036095037                    1007        6.53940055879011     0.00538694136677693     0.00582104305442992                       0 
                    7.9                    0.15     0.00560373582388259        1.11863240528548        65.4144451731717    8.8977124247514E-009     0.00200835640214294        65.4144451731717        0.18934554438916       -4497.50271395069       -2082.50928988967   1.83151045315133E-005                       0        297.792164042996         302017.75535592        6.76105797881303                    1007        6.78735817665276     0.00562094618031215      0.0060426535694435                       0 
                    7.9                    0.15     0.00583722481654436        1.11869117902396        65.6787134565453   8.34487332346142E-009     0.00210602162083363        65.6787134565453       0.190115519651171        -4497.5024883962       -2062.57300140834   1.83143604423876E-005                       0        297.776545019035        302019.392759986         6.9991853807766                    1007        7.02548551046605     0.00585494699267192     0.00625547844188786                       0 
                    7.9                    0.15     0.00607071380920614        1.11874953515409        65.9408399015251   7.79368839482148E-009     0.00220386061679658        65.9408399015251       0.190879269500786       -4497.50225820514       -2042.77805579973   1.83136216749681E-005                       0        297.761036293892        302021.018141607        7.23662598375839                    1007         7.2629260345422        0.00608894752352     0.00646768948804806                       0 
                    7.9                    0.15     0.00630420280186791        1.11880789128422        66.2029686353232   7.24497592730624E-009     0.00230172844883475        66.2029686353232        0.19164302586966        -4497.5020341176       -2022.98287215402   1.83128828848113E-005                       0        297.745527568749        302022.643523228        7.47406175876394                    1007        7.50036173660259     0.00632294805436807     0.00667989622684135                       0 
                    7.9                    0.15     0.00653769179452969        1.11886262423028        66.4467139142494   6.74852216407038E-009     0.00240186488811147        66.4467139142494       0.192353331140159         -4497.501823519       -2004.41390943483    1.8312190082751E-005                       0        297.730983490383        302024.159484565        7.70397891637785                    1007        7.73027895819109      0.0065569466286353     0.00688538337239452                       0 
                    7.9                    0.15     0.00677118078719146         1.1189155385452        66.6812317503484   6.27829928122772E-009     0.00250314003845948        66.6812317503484       0.193036807016634       -4497.50161969107       -1986.46043948192   1.83115203640845E-005                       0        297.716923609521        302025.620523179        7.93012215811991                    1007        7.95642233263363     0.00679094422081085     0.00708749766649638                       0 
                    7.9                    0.15     0.00700466977985324        1.11896845286011        66.9157472022616   5.80536871985923E-009     0.00260438301743329        66.9157472022616       0.193720275628793       -4497.50142196665       -1968.50723198018    1.8310850645418E-005                       0        297.702864110129        302027.081561792        8.15627131264273                    1007        8.18257161985693     0.00702494181298641     0.00728961725167461                       0 
                    7.9                    0.15     0.00723815877251501        1.11902102876612        67.1485537725977   5.34147364649115E-009     0.00270593033353916        67.1485537725977       0.194398775851559       -4497.50121051285       -1950.66908737875   1.83101852233336E-005                       0        297.688894782283        302028.533045085         8.3815466806076                    1007        8.40784709340756     0.00725893907255119      0.0074909558605619                       0 
                    7.9                    0.15     0.00747164776517678        1.11906927344796        67.3594582136706    4.9585668708348E-009      0.0028109610417277        67.3594582136706       0.195013593732839       -4497.50090145715       -1934.30696760663   1.83095747922957E-005                       0        297.676084423373        302029.862231855        8.59571431529997                    1007        8.62201448665016     0.00749293207510084     0.00768236663812947                       0 
                    7.9                    0.15     0.00770513675783856        1.11911751663969        67.5703598890879   4.57281478785536E-009     0.00291595580668564        67.5703598890879       0.195628403791009       -4497.50058629793       -1917.94513469976   1.83089643839952E-005                       0        297.663274064462        302031.191418625        8.80988907870785                    1007        8.83618900860827     0.00772692507765048     0.00787378377779438                       0 
                    7.9                    0.15     0.00793862575050033        1.11916576132153        67.7812643301608   4.18990801219894E-009     0.00302098651487419        67.7812643301608       0.196243221672289       -4497.50027724222       -1901.58301492764   1.83083539529574E-005                       0        297.650463705551        302032.520605395        9.02405671340022                    1007        9.05035640185087     0.00796091808020013     0.00806519455536196                       0 
                    7.9                    0.15     0.00817211474316211        1.11921350498006        67.9896736246547   3.81830665629929E-009     0.00312652346762452        67.9896736246547       0.196850783647301       -4497.49997160113       -1885.39063850777   1.83077498806851E-005                       0        297.637786256557        302033.835106617        9.23668329917751                    1007        9.26298280275603     0.00819491049761872     0.00825522807109887                       0 
                    7.9                    0.15     0.00840560373582388        1.11925766589661        68.1802405028092   3.52754864960446E-009     0.00323568049877725        68.1802405028092       0.197406459732463       -4497.49969037738       -1870.41207116318   1.83071912789854E-005                       0          297.6260592263        302035.044593709        9.43829007691017                    1007        9.46458980019474     0.00842889873085348      0.0084354129954948                       0 
                    7.9                    0.15     0.00863909272848565        1.11930182681316        68.3708072010563   3.23661557714563E-009     0.00334483508177118        68.3708072010563       0.197962135284884       -4497.49940952505       -1855.43352276109   1.83066326772856E-005                       0         297.61433224247        302036.254080801        9.63989736897473                    1007        9.66619731196536     0.00866288696408823     0.00861559838037059                       0 
                    7.9                    0.15     0.00887258172114743        1.11934598772971        68.5613713027277   2.94315580688448E-009     0.00345395433085788        68.5613713027277       0.198517803148353        -4497.4991340334       -1840.45524775328   1.83060740755859E-005                       0        297.602605928724        302037.463567893        9.84151208431411                    1007        9.86781224701079     0.00889687519732299      0.0087957904112826                       0 
                    7.9                    0.15      0.0091060707138092        1.11939014864626        68.7519381808822   2.65239780018965E-009     0.00356311136201061        68.7519381808822       0.199073479233514       -4497.49885280966       -1825.47668040869   1.83055154738861E-005                       0        297.590878898467        302038.673054984        10.0431188620468                    1007        10.0694192444495     0.00913086343055775     0.00897597533567854                       0 
                    7.9                    0.15     0.00933955970647098        1.11943151958862        68.9287199883356   2.43416856760533E-009     0.00367579922843969        68.9287199883356       0.199589063162665       -4497.49859134454       -1811.44422485796   1.83049923909947E-005                       0        297.579890735571        302039.797564138         10.234521505066                    1007        10.2608218571766     0.00936484819753682     0.00914704021324025                       0 
                    7.9                    0.15     0.00957304869913276        1.11947211277991        69.1016589812276   2.23615792042551E-009     0.00378947137311501        69.1016589812276       0.200093470745733       -4497.49833538748       -1797.67551348796   1.83044792095537E-005                       0        297.569108544071        302040.898384297        10.4230795781651                    1007        10.4493798302925     0.00959883199824028     0.00931556272815938                       0 
                    7.9                    0.15     0.00980653769179453        1.11951270299097        69.2745947316269   2.03534811511821E-009     0.00390309840685312        69.2745947316269        0.20059786882931       -4497.49807332689       -1783.90714238896     1.830396605085E-005                       0        297.558326352572        302041.999204456        10.6116475575561                    1007        10.6379477216212     0.00983281579894372     0.00948409409064296                       0 
                    7.9                    0.15      0.0100400266844563        1.11955329618226        69.4475337245189   1.83733746793841E-009     0.00401677055152844        69.4475337245189       0.201102276412379       -4497.49781736982       -1770.13843101895    1.8303452869409E-005                       0        297.547544161072        302043.100024615        10.8002056306552                    1007         10.826505694737      0.0100667995996472     0.00965261660556208                       0 
                    7.9                    0.15      0.0102735156771181         1.1195938494035        69.6202753996739   1.64047232721931E-009     0.00413050579313189        69.6202753996739       0.201606110082081       -4497.49756051108       -1756.38337088122     1.830294019352E-005                       0        297.536772725581         302044.19965527        10.9885911207268                    1007        11.0148910861084      0.0103007833172466      0.0098209848776761                       0 
                    7.9                    0.15      0.0105070046697799        1.11963132778786        69.7778377132666   1.53172930371454E-009     0.00424909498806318        69.7778377132666       0.202065793445711       -4497.49723428757       -1743.67847984441   1.83024664089955E-005                       0           297.526828734        302045.207779117        11.1637000538379                    1007        11.1900000192195       0.010534760641779     0.00997748747900007                       0 
                    7.9                    0.15      0.0107404936624416        1.11966880617221        69.9354000268592   1.42298628020978E-009     0.00436768418299446        69.9354000268592        0.20252547680934       -4497.49690806406        -1730.9735888076   1.83019926244711E-005                       0        297.516884742418        302046.215902964        11.3388089869489                    1007        11.3651089523305      0.0107687379663115       0.010133990080324                       0 
                    7.9                    0.15      0.0109739826551034        1.11970628455656        70.0929588118569   1.31161954642818E-009     0.00448622269069462        70.0929588118569       0.202985149555892       -4497.49658794407       -1718.26906703349   1.83015188626841E-005                       0        297.506940750837        302047.224026811        11.5139293999145                    1007        11.5402293414543      0.0110027152908439      0.0102905029378379                       0 
                    7.9                    0.15      0.0112074716477652        1.11974376294091        70.2505211254495   1.20287652292338E-009     0.00460481188562591        70.2505211254495       0.203444832919521       -4497.49626172056       -1705.56417599668   1.83010450781597E-005                       0        297.496996759255        302048.232150659        11.6890383330256                    1007        11.7153382745653      0.0112366926153763      0.0104470055391618                       0 
                    7.9                    0.15       0.011440960640427        1.11978124132527        70.4080834390421   1.09413349941859E-009      0.0047234010805572        70.4080834390421       0.203904516283151       -4497.49593549705       -1692.85928495987   1.83005712936353E-005                       0        297.487052767674        302049.240274506        11.8641472661366                    1007        11.8904472076764      0.0114706699399087      0.0106035081404858                       0 
                    7.9                    0.15      0.0116744496330887        1.11981657592579        70.5552052302997   1.04695100855079E-009     0.00484611720172516        70.5552052302997       0.204333828073669       -4497.49566469667        -1680.8822018523   1.83001245357548E-005                       0        297.477675606733        302050.182856314        12.0285979606771                    1007        12.0548979022169      0.0117046427567349      0.0107504848935971                       0 
                    7.9                    0.15      0.0119079386257505        1.11985128506666        70.6992809468893   1.01772911131912E-009     0.00497003737428656        70.6992809468893       0.204754278805658       -4497.49541006627       -1669.11746035229   1.82996856630329E-005                       0         297.46846382147        302051.106315904        12.1899390607478                    1007        12.2162390022876      0.0119386142584153      0.0108946824327956                       0 
                    7.9                    0.15      0.0121414276184123        1.11988599420752         70.843356663479   9.88507214087451E-010     0.00509395754684797         70.843356663479       0.205174729537648       -4497.49515543587       -1657.35271885228   1.82992467903111E-005                       0        297.459252036206        302052.029775495        12.3512801608186                    1007        12.3775801023583      0.0121725857600957      0.0110388799719941                       0 
                    7.9                    0.15       0.012374916611074        1.11992070334838        70.9874285653714   9.56995676156497E-010     0.00521782065843939        70.9874285653714       0.205595169280031       -4497.49490080547       -1645.58837865842   1.82988079175893E-005                       0        297.450040632413        302052.953235085        12.5126344335158                    1007        12.5389343988974      0.0124065572617761      0.0111830892924232                       0 
                    7.9                    0.15      0.0126084056037358        1.11995541248925         71.131504281961   9.27773778924802E-010      0.0053417408310008         71.131504281961       0.206015620012021       -4497.49464617507       -1633.82363715841   1.82983690448675E-005                       0        297.440828847149        302053.876694675        12.6739755335866                    1007        12.7002754989682      0.0126405287634565      0.0113272868316217                       0 
                    7.9                    0.15      0.0128418945963976        1.11999006978544        71.2753263971149    8.9998182448358E-010     0.00546578357728447        71.2753263971149       0.206435332884406       -4497.49439038021       -1622.07669999471   1.82979308369129E-005                       0        297.431630953801        302054.798558436        12.8350177224395                    1007        12.8613176878211      0.0128745001045993       0.011471217223374                       0 
                    7.9                    0.15      0.0130753835890594        1.12002234686131        71.4075055151561   9.37839418618803E-010      0.0055954537581672        71.4075055151561       0.206821170170812       -4497.49408112429       -1611.14717080698    1.8297523148831E-005                       0        297.423070846775        302055.647156661        12.9823367143618                    1007        13.0086366797434      0.0131084640753648      0.0116028827123904                       0 
                    7.9                    0.15      0.0133088725817212        1.12005462393718        71.5396846331975   9.75697012754026E-010     0.00572512393904992        71.5396846331975       0.207207007457218       -4497.49377186838       -1600.21764161925   1.82971154607492E-005                       0         297.41451073975        302056.495754885        13.1296557062841                    1007        13.1559556716657      0.0133424280461302      0.0117345482014068                       0 