VARIABLES = "X"
 "Y"
 "Z"
 "RHO"
 "U"
 "V"
 "W"
 "VelocityMagnitude"
 "Mach"
 "P"
 "P_tot"
 "Vislam"
 "SkinFrictionCoefficient"
 "T"
 "H0"
 "COND_TURB"
 "CP"
 "COND_eff"
 "D"
 "K"
 "VIS_T"
 "YPLUS"
ZONE
DT=(DOUBLE,DOUBLE,DOUBLE,DOUBLE,DOUBLE,DOUBLE,DOUBLE,DOUBLE,DOUBLE,DOUBLE,DOUBLE,DOUBLE,DOUBLE,DOUBLE,DOUBLE,DOUBLE,DOUBLE,DOUBLE,DOUBLE,DOUBLE,DOUBLE,DOUBLE)
                    7.9                    0.15                       0        1.11233493238688                       0                       0                       0                       0                       0       -4495.36514892578       -4179.98029785156   1.83954971134881E-005     0.00346017429837957        299.486220932007        301582.640234375      0.0447857467923313                    1007      0.0710857467725873        451302.941015625                       0   4.00269836518419E-005        21.3784857988358 
                    7.9                    0.15   1.00033344448149E-006        1.11233687554997       0.140141098846678   6.73011740812925E-011    9.4079523942261E-008       0.140141098846678    0.000404568426944435       -4495.36514892578       -4179.31929565715   1.83954723123955E-005     0.00344286763640531         299.48526610018        301584.121509383      0.0464755720198219                    1007      0.0727755719907615        450938.730940392       0.168440231445315    4.1537254437659E-005         21.271557704949 
                    7.9                    0.15   2.00066688896299E-006        1.11233881871306       0.280282197693357   1.34602348162584E-010   1.88159047884522E-007       0.280282197693357    0.000809136853888869       -4495.36514892578       -4178.65829346273   1.83954475113029E-005     0.00342556097443105        299.484311268353        301585.602784392      0.0481653972473124                    1007      0.0744653972089357        450574.520865158        0.33688046289063   4.30475252234761E-005        21.1646296110622 
                    7.9                    0.15   3.00100033344448E-006        1.11234076187616       0.420423296540035   2.01903522243876E-010   2.82238571826783E-007       0.420423296540035      0.0012137052808333       -4495.36514892578       -4177.99729126832   1.83954227102103E-005     0.00340825431245679        299.483356436526          301587.0840594       0.049855222474803                    1007        0.07615522242711        450210.310789925       0.505320694335945   4.45577960092932E-005        21.0577015171754 
                    7.9                    0.15   4.00133377792597E-006        1.11234270503925       0.560564395386714   2.69204696325168E-010   3.76318095769044E-007       0.560564395386714     0.00161827370777774       -4495.36514892578        -4177.3362890739   1.83953979091177E-005     0.00339094765048253        299.482401604699        301588.565334408      0.0515450477022935                    1007      0.0778450476452842        449846.100714692       0.673760925781259   4.60680667951104E-005        20.9507734232886 
                    7.9                    0.15   5.00166722240747E-006        1.11234464820235       0.700705494233392    3.3650587040646E-010   4.70397619711305E-007       0.700705494233392     0.00202284213472217       -4495.36514892578       -4176.67528687948   1.83953731080251E-005     0.00337364098850827        299.481446772871        301590.046609417      0.0532348729297841                    1007      0.0795348728634584        449481.890639458       0.842201157226574   4.75783375809275E-005        20.8438453294018 
                    7.9                    0.15   6.00200066688896E-006        1.11234659136544        0.84084659308007   4.03807044487752E-010   5.64477143653566E-007        0.84084659308007     0.00242741056166661       -4495.36514892578       -4176.01428468506   1.83953483069325E-005     0.00335633432653401        299.480491941044        301591.527884425      0.0549246981572747                    1007      0.0812246980816327        449117.680564225        1.01064138867189   4.90886083667446E-005         20.736917235515 
                    7.9                    0.15   7.00233411137046E-006        1.11234853452854       0.980987691926749   4.71108218569045E-010   6.58556667595827E-007       0.980987691926749     0.00283197898861104       -4495.36514892578       -4175.35328249065   1.83953235058399E-005     0.00333902766455974        299.479537109217        301593.009159433      0.0566145233847652                    1007      0.0829145232998069        448753.470488992         1.1790816201172   5.05988791525617E-005        20.6299891416282 
                    7.9                    0.15   8.00266755585195E-006        1.11235047769163        1.12112879077343   5.38409392650336E-010   7.52636191538088E-007        1.12112879077343     0.00323654741555548       -4495.36514892578       -4174.69228029623   1.83952987047473E-005     0.00332172100258548         299.47858227739        301594.490434442      0.0583043486122558                    1007      0.0846043485179811        448389.260413758        1.34752185156252   5.21091499383789E-005        20.5230610477414 
                    7.9                    0.15   9.00300100033344E-006        1.11235242085472        1.26126988962011   6.05710566731628E-010   8.46715715480349E-007        1.26126988962011     0.00364111584249991       -4495.36514892578       -4174.03127810182   1.83952739036547E-005     0.00330441434061122        299.477627445563         301595.97170945      0.0599941738397463                    1007      0.0862941737361553        448025.050338525        1.51596208300783    5.3619420724196E-005        20.4161329538546 
                    7.9                    0.15   1.00033344448149E-005        1.11235436401782        1.40141098846678    6.7301174081292E-010    9.4079523942261E-007        1.40141098846678     0.00404568426944435       -4495.36514892578        -4173.3702759074   1.83952491025621E-005     0.00328710767863696        299.476672613736        301597.452984458      0.0616839990672369                    1007      0.0879839989543295        447660.840263292        1.68440231445315   5.51296915100131E-005        20.3092048599678 
                    7.9                    0.15   1.10036678892964E-005        1.11235630718091        1.54155208731346   7.40312914894212E-010   1.03487476336487E-006        1.54155208731346     0.00445025269638878       -4495.36514892578       -4172.70927371298   1.83952243014695E-005      0.0032698010166627        299.475717781909        301598.934259467      0.0633738242947274                    1007      0.0896738241725037        447296.630188058        1.85284254589846   5.66399622958302E-005        20.2022767660811 
                    7.9                    0.15   1.20040013337779E-005        1.11235825034401        1.68169318616014   8.07614088975504E-010   1.12895428730713E-006        1.68169318616014     0.00485482112333321       -4495.36514892578       -4172.04827151857   1.83951995003769E-005     0.00325249435468844        299.474762950082        301600.415534475       0.065063649522218                    1007       0.091363649390678        446932.420112825        2.02128277734378   5.81502330816473E-005        20.0953486721943 
                    7.9                    0.15   1.30043347782594E-005         1.1123601935071        1.82183428500682   8.74915263056796E-010   1.22303381124939E-006        1.82183428500682     0.00525938955027765       -4495.36514892578       -4171.38726932415   1.83951746992843E-005     0.00323518769271418        299.473808118255        301601.896809483      0.0667534747497086                    1007      0.0930534746088522        446568.210037592        2.18972300878909   5.96605038674645E-005        19.9884205783075 
                    7.9                    0.15   1.40046682227409E-005        1.11236213667019         1.9619753838535   9.42216437138088E-010   1.31711333519165E-006         1.9619753838535     0.00566395797722209       -4495.36514892578       -4170.72626712974   1.83951498981917E-005     0.00321788103073992        299.472853286428        301603.378084492      0.0684432999771991                    1007      0.0947432998270264        446203.999962358        2.35816324023441   6.11707746532816E-005        19.8814924844207 
                    7.9                    0.15   1.50050016672224E-005        1.11236407983329        2.10211648270018   1.00951761121938E-009   1.41119285913391E-006        2.10211648270018     0.00606852640416652       -4495.36514892578       -4170.06526493532   1.83951250970991E-005     0.00320057436876566        299.471898454601          301604.8593595      0.0701331252046896                    1007      0.0964331250452006        445839.789887125        2.52660347167972   6.26810454390987E-005        19.7745643905339 
                    7.9                    0.15   1.60053351117039E-005        1.11236602299638        2.24225758154685   1.07681878530067E-009   1.50527238307618E-006        2.24225758154685     0.00647309483111095       -4495.36514892578        -4169.4042627409   1.83951002960065E-005      0.0031832677067914        299.470943622773        301606.340634508      0.0718229504321802                    1007      0.0981229502633749        445475.579811892        2.69504370312504   6.41913162249158E-005        19.6676362966471 
                    7.9                    0.15   1.70056685561854E-005        1.11236796615948        2.38239868039353   1.14411995938196E-009   1.59935190701844E-006        2.38239868039353     0.00687766325805539       -4495.36514892578       -4168.74326054649   1.83950754949139E-005     0.00316596104481714        299.469988790946        301607.821909517      0.0735127756596708                    1007      0.0998127754815491        445111.369736658        2.86348393457035   6.57015870107329E-005        19.5607082027603 
                    7.9                    0.15   1.80060020006669E-005        1.11236990932257        2.52253977924021   1.21142113346326E-009    1.6934314309607E-006        2.52253977924021     0.00728223168499982       -4495.36514892578       -4168.08225835207   1.83950506938213E-005     0.00314865438284287        299.469033959119        301609.303184525      0.0752026008871613                    1007       0.101502600699723        444747.159661425        3.03192416601567     6.721185779655E-005        19.4537801088735 
                    7.9                    0.15   1.90063354451484E-005        1.11237185248567        2.66268087808689   1.27872230754455E-009   1.78751095490296E-006        2.66268087808689     0.00768680011194426       -4495.36514892578       -4167.42125615765   1.83950258927287E-005     0.00313134772086861        299.468079127292        301610.784459533      0.0768924261146519                    1007       0.103192425917898        444382.949586192        3.20036439746098   6.87221285823671E-005        19.3468520149867 
                    7.9                    0.15   2.00066688896299E-005        1.11237379564876        2.80282197693357   1.34602348162584E-009   1.88159047884522E-006        2.80282197693357     0.00809136853888869       -4495.36514892578       -4166.76025396324   1.83950010916361E-005     0.00311404105889435        299.467124295465        301612.265734542      0.0785822513421424                    1007       0.104882251136072        444018.739510958         3.3688046289063   7.02323993681843E-005        19.2399239210999 
                    7.9                    0.15   2.10070023341114E-005        1.11237573881185        2.94296307578025   1.41332465570713E-009   1.97567000278748E-006        2.94296307578025     0.00849593696583313       -4495.36514892578       -4166.09925176882   1.83949762905435E-005     0.00309673439692009        299.466169463638         301613.74700955       0.080272076569633                    1007       0.106572076354246        443654.529435725        3.53724486035161   7.17426701540014E-005        19.1329958272131 
                    7.9                    0.15   2.20073357785929E-005        1.11237768197495        3.08310417462693   1.48062582978842E-009   2.06974952672974E-006        3.08310417462693     0.00890050539277756       -4495.36514892578       -4165.43824957441   1.83949514894509E-005     0.00307942773494583        299.465214631811        301615.228284559      0.0819619017971235                    1007        0.10826190157242        443290.319360492        3.70568509179693   7.32529409398185E-005        19.0260677333264 
                    7.9                    0.15   2.30076692230744E-005        1.11237962513804         3.2232452734736   1.54792700386972E-009     2.163829050672E-006         3.2232452734736     0.00930507381972199       -4495.36514892578       -4164.77724737999   1.83949266883583E-005     0.00306212107297157        299.464259799984        301616.709559567      0.0836517270246141                    1007       0.109951726790594        442926.109285258        3.87412532324224   7.47632117256356E-005        18.9191396394396 
                    7.9                    0.15   2.40080026675559E-005        1.11238156830114        3.36338637232028   1.61522817795101E-009   2.25790857461426E-006        3.36338637232028     0.00970964224666643       -4495.36514892578       -4164.11624518557   1.83949018872657E-005     0.00304481441099731        299.463304968157        301618.190834575      0.0853415522521047                    1007       0.111641552008769        442561.899210025        4.04256555468756   7.62734825114528E-005        18.8122115455528 
                    7.9                    0.15   2.50083361120373E-005        1.11238351146423        3.50352747116696    1.6825293520323E-009   2.35198809855652E-006        3.50352747116696      0.0101142106736109       -4495.36514892578       -4163.45524299116   1.83948770861731E-005     0.00302750774902305         299.46235013633        301619.672109583      0.0870313774795952                    1007       0.113331377226943        442197.689134792        4.21100578613287   7.77837532972699E-005         18.705283451666 
                    7.9                    0.15   2.60086695565188E-005        1.11238545462733        3.64366857001364   1.74983052611359E-009   2.44606762249878E-006        3.64366857001364      0.0105187791005553       -4495.36514892578       -4162.79424079674   1.83948522850805E-005     0.00301020108704879        299.461395304503        301621.153384592      0.0887212027070858                    1007       0.115021202445117        441833.479059559        4.37944601757819    7.9294024083087E-005        18.5983553577792 
                    7.9                    0.15   2.70090030010003E-005        1.11238739779042        3.78380966886032   1.81713170019488E-009   2.54014714644105E-006        3.78380966886032      0.0109233475274997       -4495.36514892578       -4162.13323860232   1.83948274839879E-005     0.00299289442507453        299.460440472676          301622.6346596      0.0904110279345763                    1007       0.116711027663291        441469.268984325         4.5478862490235   8.08042948689041E-005        18.4914272638924 
                    7.9                    0.15   2.80093364454818E-005        1.11238934095351          3.923950767707   1.88443287427618E-009   2.63422667038331E-006          3.923950767707      0.0113279159544442       -4495.36514892578       -4161.47223640791   1.83948026828953E-005     0.00297558776310027        299.459485640849        301624.115934609      0.0921008531620669                    1007       0.118400852881466        441105.058909092        4.71632648046882   8.23145656547213E-005        18.3844991700056 
                    7.9                    0.15   2.90096698899633E-005        1.11239128411661        4.06409186655367   1.95173404835747E-009   2.72830619432557E-006        4.06409186655367      0.0117324843813886       -4495.36514892578       -4160.81123421349   1.83947778818027E-005     0.00295828110112601        299.458530809022        301625.597209617      0.0937906783895574                    1007        0.12009067809964        440740.848833858        4.88476671191413   8.38248364405384E-005        18.2775710761188 
                    7.9                    0.15   3.00100033344448E-005         1.1123932272797        4.20423296540035   2.01903522243876E-009   2.82238571826783E-006        4.20423296540035       0.012137052808333       -4495.36514892578       -4160.15023201908   1.83947530807101E-005     0.00294097443915174        299.457575977194        301627.078484625       0.095480503617048                    1007       0.121780503317814        440376.638758625        5.05320694335945   8.53351072263555E-005         18.170642982232 
                    7.9                    0.15   3.10103367789263E-005         1.1123951704428        4.34437406424703   2.08633639652005E-009   2.91646524221009E-006        4.34437406424703      0.0125416212352775       -4495.36514892578       -4159.48922982466   1.83947282796175E-005     0.00292366777717748        299.456621145367        301628.559759633      0.0971703288445385                    1007       0.123470328535988        440012.428683392        5.22164717480476   8.68453780121726E-005        18.0637148883452 
                    7.9                    0.15   3.20106702234078E-005        1.11239711360589        4.48451516309371   2.15363757060134E-009   3.01054476615235E-006        4.48451516309371      0.0129461896622219       -4495.36514892578       -4158.82822763024   1.83947034785249E-005     0.00290636111520322         299.45566631354        301630.041034642      0.0988601540720291                    1007       0.125160153754162        439648.218608158        5.39008740625007   8.83556487979897E-005        17.9567867944584 
                    7.9                    0.15   3.30110036678893E-005        1.11239905676899        4.62465626194039   2.22093874468263E-009   3.10462429009461E-006        4.62465626194039      0.0133507580891663       -4495.36514892578       -4158.16722543583   1.83946786774322E-005     0.00288905445322896        299.454711481713         301631.52230965        0.10054997929952                    1007       0.126849978972337        439284.008532925        5.55852763769539   8.98659195838068E-005        17.8498587005716 
                    7.9                    0.15   3.40113371123708E-005        1.11240099993208        4.76479736078707   2.28823991876393E-009   3.19870381403687E-006        4.76479736078707      0.0137553265161108       -4495.36514892578       -4157.50622324141   1.83946538763396E-005      0.0028717477912547        299.453756649886        301633.003584658        0.10223980452701                    1007       0.128539804190511        438919.798457692         5.7269678691407    9.1376190369624E-005        17.7429306066849 
                    7.9                    0.15   3.50116705568523E-005        1.11240294309517        4.90493845963374   2.35554109284522E-009   3.29278333797913E-006        4.90493845963374      0.0141598949430552       -4495.36514892578       -4156.84522104699   1.83946290752471E-005     0.00285444112928044        299.452801818059        301634.484859667       0.103929629754501                    1007       0.130229629408685        438555.588382458        5.89540810058602   9.28864611554411E-005        17.6360025127981 
                    7.9                    0.15   3.60120040013338E-005        1.11240488625827        5.04507955848042   2.42284226692651E-009   3.38686286192139E-006        5.04507955848042      0.0145644633699996       -4495.36514892578       -4156.18421885258   1.83946042741544E-005     0.00283713446730618        299.451846986232        301635.966134675       0.105619454981991                    1007       0.131919454626859        438191.378307225        6.06384833203133   9.43967319412582E-005        17.5290744189113 
                    7.9                    0.15   3.70123374458153E-005        1.11240682942136         5.1852206573271    2.4901434410078E-009   3.48094238586366E-006         5.1852206573271      0.0149690317969441       -4495.36514892578       -4155.52321665816   1.83945794730618E-005     0.00281982780533192        299.450892154405        301637.447409683       0.107309280209482                    1007       0.133609279845034        437827.168231992        6.23228856347665   9.59070027270753E-005        17.4221463250245 
                    7.9                    0.15   3.80126708902968E-005        1.11240877258446        5.32536175617378    2.5574446150891E-009   3.57502190980592E-006        5.32536175617378      0.0153736002238885       -4495.36514892578       -4154.86221446375   1.83945546719692E-005     0.00280252114335766        299.449937322578        301638.928684692       0.108999105436972                    1007       0.135299105063208        437462.958156759        6.40072879492197   9.74172735128925E-005        17.3152182311377 
                    7.9                    0.15   3.90130043347783E-005        1.11241071574755        5.46550285502046   2.62474578917039E-009   3.66910143374818E-006        5.46550285502046      0.0157781686508329       -4495.36514892578       -4154.20121226933   1.83945298708766E-005      0.0027852144813834        299.448982490751          301640.4099597       0.110688930664463                    1007       0.136988930281382        437098.748081525        6.56916902636728   9.89275442987096E-005        17.2082901372509 
                    7.9                    0.15   4.00133377792598E-005        1.11241265891065        5.60564395386714   2.69204696325168E-009   3.76318095769044E-006        5.60564395386714      0.0161827370777774       -4495.36514892578       -4153.54021007491    1.8394505069784E-005     0.00276790781940914        299.448027658924        301641.891234708       0.112378755891954                    1007       0.138678755499556        436734.538006292         6.7376092578126    0.000100437815084527        17.1013620433641 
                    7.9                    0.15   4.10136712237413E-005        1.11241460207374        5.74578505271382   2.75934813733297E-009    3.8572604816327E-006        5.74578505271382      0.0165873055047218       -4495.36514892578        -4152.8792078805   1.83944802686914E-005     0.00275060115743488        299.447072827097        301643.372509717       0.114068581119444                    1007        0.14036858071773        436370.327931059        6.90604948925791    0.000101948085870344        16.9944339494773 
                    7.9                    0.15   4.20140046682227E-005        1.11241654523683        5.88592615156049   2.82664931141426E-009   3.95134000557496E-006        5.88592615156049      0.0169918739316662       -4495.36514892578       -4152.21820568608   1.83944554675988E-005     0.00273329449546061        299.446117995269        301644.853784725       0.115758406346935                    1007       0.142058405935905        436006.117855825        7.07448972070322    0.000103458356656161        16.8875058555905 
                    7.9                    0.15   4.30143381127042E-005        1.11241848839993        6.02606725040717   2.89395048549556E-009   4.04541952951722E-006        6.02606725040717      0.0173964423586107       -4495.36514892578       -4151.55720349167   1.83944306665062E-005     0.00271598783348635        299.445163163442        301646.335059733       0.117448231574425                    1007       0.143748231154079        435641.907780592        7.24292995214854    0.000104968627441978        16.7805777617037 
                    7.9                    0.15   4.40146715571857E-005        1.11242043156302        6.16620834925385   2.96125165957685E-009   4.13949905345948E-006        6.16620834925385      0.0178010107855551       -4495.36514892578       -4150.89620129725   1.83944058654136E-005     0.00269868117151209        299.444208331615        301647.816334742       0.119138056801916                    1007       0.145438056372253        435277.697705359        7.41137018359385    0.000106478898227795        16.6736496678169 
                    7.9                    0.15   4.50150050016672E-005        1.11242237472612        6.30634944810053   3.02855283365814E-009   4.23357857740174E-006        6.30634944810053      0.0182055792124996       -4495.36514892578       -4150.23519910283    1.8394381064321E-005     0.00268137450953783        299.443253499788         301649.29760975       0.120827882029406                    1007       0.147127881590427        434913.487630125        7.57981041503917    0.000107989169013612        16.5667215739302 
                    7.9                    0.15   4.60153384461487E-005        1.11242431788921        6.44649054694721   3.09585400773943E-009     4.327658101344E-006        6.44649054694721       0.018610147639444       -4495.36514892578       -4149.57419690842   1.83943562632284E-005     0.00266406784756357        299.442298667961        301650.778884758       0.122517707256897                    1007       0.148817706808602        434549.277554892        7.74825064648448    0.000109499439799429        16.4597934800434 
                    7.9                    0.15   4.70156718906302E-005        1.11242626105231        6.58663164579388   3.16315518182072E-009   4.42173762528626E-006        6.58663164579388      0.0190147160663884       -4495.36514892578         -4148.913194714   1.83943314621358E-005     0.00264676118558931        299.441343836134        301652.260159767       0.124207532484387                    1007       0.150507532026776        434185.067479659         7.9166908779298    0.000111009710585247        16.3528653861566 
                    7.9                    0.15   4.80160053351117E-005         1.1124282042154        6.72677274464056   3.23045635590202E-009   4.51581714922853E-006        6.72677274464056      0.0194192844933329       -4495.36514892578       -4148.25219251958   1.83943066610432E-005     0.00262945452361505        299.440389004307        301653.741434775       0.125897357711878                    1007        0.15219735724495        433820.857404425        8.08513110937512    0.000112519981371064        16.2459372922698 
                    7.9                    0.15   4.90163387795932E-005        1.11243014737849        6.86691384348724   3.29775752998331E-009   4.60989667317079E-006        6.86691384348724      0.0198238529202773       -4495.36514892578       -4147.59119032517   1.83942818599506E-005     0.00261214786164079         299.43943417248        301655.222709783       0.127587182939368                    1007       0.153887182463124        433456.647329192        8.25357134082043    0.000114030252156881         16.139009198383 
                    7.9                    0.15   5.00166722240747E-005        1.11243209054159        7.00705494233392    3.3650587040646E-009   4.70397619711305E-006        7.00705494233392      0.0202284213472217       -4495.36514892578       -4146.93018813075    1.8394257058858E-005     0.00259484119966653        299.438479340653        301656.703984792       0.129277008166859                    1007       0.155577007681298        433092.437253959        8.42201157226574    0.000115540522942698        16.0320811044962 
                    7.9                    0.15   5.10170056685562E-005        1.11243403370468         7.1471960411806   3.43235987814589E-009   4.79805572105531E-006         7.1471960411806      0.0206329897741662       -4495.36514892578       -4146.26918593634   1.83942322577654E-005     0.00257753453769227        299.437524508826          301658.1852598        0.13096683339435                    1007       0.157266832899473        432728.227178725        8.59045180371106    0.000117050793728515        15.9251530106094 
                    7.9                    0.15   5.20173391130377E-005        1.11243597686778        7.28733714002728   3.49966105222718E-009   4.89213524499757E-006        7.28733714002728      0.0210375582011106       -4495.36514892578       -4145.60818374192   1.83942074566728E-005     0.00256022787571801        299.436569676999        301659.666534808        0.13265665862184                    1007       0.158956658117647        432364.017103492        8.75889203515637    0.000118561064514332        15.8182249167226 
                    7.9                    0.15   5.30176725575192E-005        1.11243792003087        7.42747823887395   3.56696222630847E-009   4.98621476893983E-006        7.42747823887395       0.021442126628055       -4495.36514892578        -4144.9471815475   1.83941826555802E-005     0.00254292121374374        299.435614845172        301661.147809817       0.134346483849331                    1007       0.160646483335821        431999.807028259        8.92733226660169    0.000120071335300149        15.7112968228358 
                    7.9                    0.15   5.40180060020007E-005        1.11243986319397        7.56761933772063   3.63426340038977E-009   5.08029429288209E-006        7.56761933772063      0.0218466950549995       -4495.36514892578       -4144.28617935309   1.83941578544876E-005     0.00252561455176948        299.434660013344        301662.629084825       0.136036309076821                    1007       0.162336308553995        431635.596953025          9.095772498047    0.000121581606085966         15.604368728949 
                    7.9                    0.15   5.50183394464822E-005        1.11244180635706        7.70776043656731   3.70156457447106E-009   5.17437381682435E-006        7.70776043656731      0.0222512634819439       -4495.36514892578       -4143.62517715867    1.8394133053395E-005     0.00250830788979522        299.433705181518        301664.110359834       0.137726134304312                    1007        0.16402613377217        431271.386877792        9.26421272949232    0.000123091876871784        15.4974406350623 