VARIABLES = "X"
 "Y"
 "Z"
 "RHO"
 "U"
 "V"
 "W"
 "VelocityMagnitude"
 "Mach"
 "P"
 "P_tot"
 "Vislam"
 "SkinFrictionCoefficient"
 "T"
 "H0"
 "COND_TURB"
 "CP"
 "COND_eff"
 "Ywall"
 "VIS_T"
 "YPLUS"
ZONE
DT=(DOUBLE,DOUBLE,DOUBLE,DOUBLE,DOUBLE,DOUBLE,DOUBLE,DOUBLE,DOUBLE,DOUBLE,DOUBLE,DOUBLE,DOUBLE,DOUBLE,DOUBLE,DOUBLE,DOUBLE,DOUBLE,DOUBLE,DOUBLE,DOUBLE)
                      0                    0.15                       0        1.12200844287872                       0                       0                       0                       0                       0        -4224.5517578125                       0   1.83128449862124E-005      0.0469315610826015        297.045440673828            300965.15625       0.245379880070686                    1007       0.271679878234863   9.99999974737875E-005    0.000219306748476811        22.1469287872314 
    0.00400200100050025                    0.15                       0        1.12168566753651                       0                       0                       0                       0                       0       -4227.54518348041       -245.325674617095   1.83164816255736E-005      0.0437706406151372        297.312462612532        300702.119888069       0.228898347229168                    1007       0.255198345393345   9.99999974737875E-005    0.000204576479697697        22.0354997091976 
     0.0080040020010005                    0.15                       0        1.12136289219429                       0                       0                       0                       0                       0       -4230.53860914832       -490.651349234189   1.83201182649348E-005      0.0406097201476728        297.579484551236        300439.083526138        0.21241681438765                    1007       0.238716812551827   9.99999974737875E-005    0.000189846210918583        21.9240706311637 
     0.0120060030015008                    0.15                       0        1.12104011685208                       0                       0                       0                       0                       0       -4233.53203481624       -735.977023851284   1.83237549042959E-005      0.0374487996802084        297.846506489939        300176.047164207       0.195935281546131                    1007       0.222235279710308   9.99999974737875E-005    0.000175115942139469        21.8126415531298 
      0.016008004002001                    0.15                       0        1.12061762290934                       0                       0                       0                       0                       0       -4236.94806582979       -899.093400826392    1.8328592338729E-005      0.0338840193984999        298.023944192555        300163.841717734       0.177719184842749                    1007       0.204019183006926   9.99999974737875E-005    0.000158835419467599        21.6435525855045 
     0.0200100050025013                    0.15                       0        1.12014439053509                       0                       0                       0                       0                       0       -4240.57912525599       -1020.38036187283   1.83340407570524E-005      0.0301137487327175        298.155799991671        300279.263084667       0.158620514083707                    1007       0.184920512247884   9.99999974737875E-005    0.000141766102623596        21.4451253365254 
     0.0240120060030015                    0.15                       0        1.11967115816085                       0                       0                       0                       0                       0       -4244.21018468218       -1141.66732291928   1.83394891753759E-005      0.0263434780669352        298.287655790786        300394.684451601       0.139521843324666                    1007       0.165821841488843   9.99999974737875E-005    0.000124696785779593        21.2466980875463 
     0.0280140070035018                    0.15                       0        1.11927733831611                       0                       0                       0                       0                       0       -4247.02222497968       -1251.17360236515   1.83440558934105E-005      0.0235244770417397        298.395963896865        300491.437421836       0.125556167380967                    1007       0.151856166271939   9.99999974737875E-005    0.000112215050114361        21.0632685384135 
      0.032016008004002                    0.15                       0        1.11904804494275                       0                       0                       0                       0                       0       -4248.13742564642       -1336.27272608472   1.83467959093081E-005       0.022676311579606         298.45548601327        300549.513303527       0.122225003772643                    1007        0.14852500489618   9.99999974737875E-005    0.000109237841609248         20.910911146911 
     0.0360180090045022                    0.15                       0        1.11881875156939                       0                       0                       0                       0                       0       -4249.25262631316        -1421.3718498043   1.83495359252056E-005      0.0218281461174724        298.515008129675        300607.589185218       0.118893840164319                    1007       0.145193843520421   9.99999974737875E-005    0.000106260633104135        20.7585537554086 
     0.0400200100050025                    0.15                       0        1.11858945819603                       0                       0                       0                       0                       0        -4250.3678269799       -1506.47097352387   1.83522759411032E-005      0.0209799806553387         298.57453024608        300665.665066908       0.115562676555995                    1007       0.141862682144662   9.99999974737875E-005    0.000103283424599023        20.6061963639061 
     0.0440220110055027                    0.15                       0        1.11846544016236                       0                       0                       0                       0                       0       -4251.25151736024       -1567.24026045005   1.83537182522884E-005      0.0206000281049646        298.605167803018         300696.24545085       0.114544805707694                    1007       0.140844806909501   9.99999974737875E-005     0.00010237370911434         20.490812857906 
      0.048024012006003                    0.15                       0        1.11834266693846                       0                       0                       0                       0                       0       -4252.13247028788       -1627.72186349523   1.83551452189921E-005      0.0202256118559119        298.635463819556         300726.50071911       0.113554287983245                    1007       0.139854284719922   9.99999974737875E-005    0.000101488440337669        20.3758665431196 
     0.0520260130065033                    0.15                       0        1.11821989371456                       0                       0                       0                       0                       0       -4253.01342321551        -1688.2034665404   1.83565721856959E-005      0.0198511956068591        298.665759836095        300756.755987369       0.112563770258796                    1007       0.138863762530343   9.99999974737875E-005    0.000100603171560998        20.2609202283332 
     0.0560280140070035                    0.15                       0        1.11813096006612                       0                       0                       0                       0                       0       -4253.78892058334       -1738.16349593254   1.83575853618837E-005      0.0195723336409887        298.687214304174        300778.237962731        0.11194946924751                    1007       0.138249461414696   9.99999974737875E-005    0.000100054143421448        20.1633265687562 
     0.0600300150075038                    0.15                       0        1.11806016095941                       0                       0                       0                       0                       0       -4254.50790458706       -1782.48504098241   1.83583767887951E-005      0.0193446789704647        298.703930609103        300795.018352926       0.111536781808148                    1007         0.1378367762079   9.99999974737875E-005   9.96853057771752E-005        20.0750321526119 
      0.064032016008004                    0.15                       0        1.11798936185269                       0                       0                       0                       0                       0       -4255.22688859078       -1826.80658603228   1.83591682157064E-005      0.0191170242999407        298.720646914033        300811.798743122       0.111124094368786                    1007       0.137424091001103   9.99999974737875E-005   9.93164681329025E-005        19.9867377364677 
     0.0680340170085043                    0.15                       0        1.11792665728931                       0                       0                       0                       0                       0       -4255.89894092554       -1867.81808225891   1.83598640141863E-005      0.0189100139731986        298.735336937267        300826.554183342       0.110770938820157                    1007       0.137070937685039   9.99999974737875E-005   9.90008375320149E-005        19.9042068145584 
     0.0720360180090045                    0.15                       0        1.11788164877546                       0                       0                       0                       0                       0       -4256.46839264359       -1901.59324834537    1.8360350752638E-005      0.0187481356958946        298.745597163816        300836.882738244       0.110547930117754                    1007       0.136847931215201   9.99999974737875E-005    9.8801526584485E-005        19.8342758720669 
     0.0760380190095048                    0.15                       0         1.1178366402616                       0                       0                       0                       0                       0       -4257.03784436163       -1935.36841443183   1.83608374910896E-005      0.0185862574185906        298.755857390365        300847.211293147       0.110324921415352                    1007       0.136624924745364   9.99999974737875E-005   9.86022156369551E-005        19.7643449295754 
      0.080040020010005                    0.15                       0        1.11779163174775                       0                       0                       0                       0                       0       -4257.60729607968       -1969.14358051829   1.83613242295413E-005      0.0184243791412866        298.766117616914        300857.539848049       0.110101912712949                    1007       0.136401918275527   9.99999974737875E-005   9.84029046894252E-005        19.6944139870839 
     0.0840420210105053                    0.15                       0        1.11775939156855                       0                       0                       0                       0                       0       -4258.07772245498       -1996.06870781582   1.83616640475182E-005      0.0182967421753875        298.773278836073        300864.740745373        0.10994365054363                    1007       0.136243656158388   9.99999974737875E-005   9.82614569868562E-005        19.6369248447924 
     0.0880440220110055                    0.15                       0        1.11772745695634                       0                       0                       0                       0                       0       -4258.54577899301       -2022.82990256115   1.83620003494495E-005      0.0181699246596759        298.780365890953        300871.866792771       0.109786937863991                    1007       0.136086943478749   9.99999974737875E-005    9.8121394045705E-005        19.5797334549843 
     0.0920460230115058                    0.15                       0        1.11769552234413                       0                       0                       0                       0                       0       -4259.01383553105       -2049.59109730647   1.83623366513809E-005      0.0180431071439643        298.787452945833         300878.99284017       0.109630225184353                    1007        0.13593023079911   9.99999974737875E-005   9.79813311045538E-005        19.5225420651763 
      0.096048024012006                    0.15                       0        1.11766811005171                       0                       0                       0                       0                       0       -4259.43913851457       -2073.26386227782   1.83626217222354E-005      0.0179297463132582        298.793458298363        300885.035173837       0.109487516279069                    1007       0.135787519038827   9.99999974737875E-005   9.78537852746428E-005        19.4711476498213 
      0.100050025012506                    0.15                       0        1.11764324820596                       0                       0                       0                       0                       0       -4259.84032983288       -2095.19484962208   1.83628779003679E-005      0.0178239746312757        298.798853604659        300890.466326913       0.109352705063761                    1007       0.135652703358389   9.99999974737875E-005   9.77332987032901E-005        19.4230225464295 
      0.104052026013007                    0.15                       0        1.11761838636021                       0                       0                       0                       0                       0        -4260.2415211512       -2117.12583696634   1.83631340785004E-005      0.0177182029492933        298.804248910955         300895.89747999       0.109217893848454                    1007       0.135517887677951   9.99999974737875E-005   9.76128121319375E-005        19.3748974430376 
      0.108054027013507                    0.15                       0        1.11759478739347                       0                       0                       0                       0                       0       -4260.62838792443       -2138.01055776912    1.8363376257057E-005      0.0176166455862879         298.80934855245        300901.031531391       0.109084833258686                    1007       0.135384824646897   9.99999974737875E-005   9.74938902190538E-005        19.3287877650068 
      0.112056028014007                    0.15                       0        1.11757410490972                       0                       0                       0                       0                       0       -4260.98217370404       -2156.47903871369   1.83635861051017E-005      0.0175248207389309        298.813765387943        300905.479458479       0.108955815549998                    1007       0.135255809170774   9.99999974737875E-005   9.73785817163359E-005        19.2873324947157 
      0.116058029014507                    0.15                       0        1.11755342242597                       0                       0                       0                       0                       0       -4261.33595948365       -2174.94751965827   1.83637959531464E-005       0.017432995891574        298.818182223436        300909.927385568        0.10882679784131                    1007       0.135126793694651   9.99999974737875E-005    9.7263273213618E-005        19.2458772244246 
      0.120060030015007                    0.15                       0        1.11753273994223                       0                       0                       0                       0                       0       -4261.68974526326       -2193.41600060284    1.8364005801191E-005      0.0173411710442171        298.822599058929        300914.375312656       0.108697780132622                    1007       0.134997778218528   9.99999974737875E-005   9.71479647109001E-005        19.2044219541335 
      0.124062031015508                    0.15                       0        1.11751474601856                       0                       0                       0                       0                       0       -4262.00894099393       -2209.39569223088   1.83641872478864E-005      0.0172590200582882        298.826424686953        300918.217843297       0.108569107111124                    1007       0.134869107429596   9.99999974737875E-005   9.70329633635155E-005        19.1678667569411 
      0.128064032016008                    0.15                       0        1.11749684977615                       0                       0                       0                       0                       0       -4262.32687999273       -2225.28496071766   1.83643676626988E-005      0.0171772205448333        298.830228835121        300922.038378564       0.108440446612864                    1007       0.134740449163901   9.99999974737875E-005   9.69179731757537E-005        19.1314895900862 
      0.132066033016508                    0.15                       0        1.11747895353374                       0                       0                       0                       0                       0       -4262.64481899153       -2241.17422920444   1.83645480775113E-005      0.0170954210313783        298.834032983289        300925.858913832       0.108311786114603                    1007       0.134611790898205   9.99999974737875E-005   9.68029829879919E-005        19.0951124232313 
      0.136068034017009                    0.15                       0          1.117462290532                       0                       0                       0                       0                       0       -4262.94521601621       -2255.81654804453   1.83647151488217E-005        0.01701843781325        298.837555862892        300929.409063907       0.108182454341021                    1007       0.134482459955778   9.99999974737875E-005    9.6687394737625E-005        19.0612372550564 
      0.140070035017509                    0.15                       0        1.11744635894693                       0                       0                       0                       0                       0       -4263.23520915731       -2269.71931962075   1.83648743062997E-005      0.0169443110681478          298.8409119263        300932.798852551       0.108052724444043                    1007       0.134352730058801   9.99999974737875E-005   9.65714517852344E-005        19.0288459850348 
      0.144072036018009                    0.15                       0        1.11743042736187                       0                       0                       0                       0                       0       -4263.52520229841       -2283.62209119696   1.83650334637777E-005      0.0168701843230455        298.844267989708        300936.188641196       0.107922994547066                    1007       0.134223000161823   9.99999974737875E-005   9.64555088328438E-005        18.9964547150131 
      0.148074037018509                    0.15                       0        1.11741492120906                       0                       0                       0                       0                       0       -4263.80873517814       -2297.06777802964   1.83651881879809E-005       0.016797842966647        298.847528424246        300939.480505878        0.10779295660082                    1007       0.134092961567053   9.99999974737875E-005   9.63392897507641E-005        18.9649968225995 
      0.152076038019009                    0.15                       0        1.11740045418675                       0                       0                       0                       0                       0        -4264.0764886838       -2309.39702224159    1.8365332083783E-005      0.0167298624734616        298.850555282524        300942.533188469       0.107662166235386                    1007       0.133962168969054   9.99999974737875E-005   9.62223962139841E-005        18.9358187318146 
       0.15607803901951                    0.15                       0        1.11738598716444                       0                       0                       0                       0                       0       -4264.34424218945       -2321.72626645354   1.83654759795851E-005      0.0166618819802761        298.853582140802        300945.585871061       0.107531375869952                    1007       0.133831376371054   9.99999974737875E-005   9.61055026772041E-005        18.9066406410297 
       0.16008004002001                    0.15                       0        1.11737152014213                       0                       0                       0                       0                       0       -4264.61199569511       -2334.05551066549   1.83656198753871E-005      0.0165939014870906         298.85660899908        300948.638553652       0.107400585504518                    1007       0.133700583773055   9.99999974737875E-005   9.59886091404241E-005        18.8774625502449 
       0.16408204102051                    0.15                       0        1.11735817681199                       0                       0                       0                       0                       0        -4264.8625938946       -2345.16888998699   1.83657523404013E-005      0.0165307717048388        298.859391777798        300951.432372436       0.107269220523771                    1007       0.133569216559743   9.99999974737875E-005    9.5871200179029E-005        18.8508064332994 
      0.168084042021011                    0.15                       0        1.11734488858409                       0                       0                       0                       0                       0       -4265.11235085316       -2356.22264721228   1.83658842448866E-005      0.0164678797858202        298.862162587641        300954.213497374       0.107137827365741                    1007       0.133437821169148   9.99999974737875E-005   9.57537659428715E-005        18.8242739858241 
      0.172086043021511                    0.15                       0        1.11733160035619                       0                       0                       0                       0                       0       -4265.36210781172       -2367.27640443757   1.83660161493718E-005      0.0164049878668016        298.864933397485        300956.994622311        0.10700643420771                    1007       0.133306425778552   9.99999974737875E-005   9.56363317067141E-005        18.7977415383488 
      0.176088044022011                    0.15                       0        1.11731892827155                       0                       0                       0                       0                       0       -4265.60276134161       -2377.68097903932   1.83661413384284E-005      0.0163447554724076        298.867574641202        300959.648840045       0.106875001165406                    1007       0.133174994629642   9.99999974737875E-005   9.55188638934136E-005        18.7725758726684 
      0.180090045022511                    0.15                       0        1.11730664023284                       0                       0                       0                       0                       0       -4265.83774064767       -2387.68091406543   1.83662623417165E-005      0.0162861807762891        298.870135125546        300962.223955728       0.106743543262986                    1007       0.133043541192352   9.99999974737875E-005   9.54013751512706E-005        18.7482621305999 
      0.184092046023012                    0.15                       0        1.11729435219414                       0                       0                       0                       0                       0       -4266.07271995373       -2397.68084909154   1.83663833450046E-005      0.0162276060801706         298.87269560989        300964.799071411       0.106612085360566                    1007       0.132912087755063   9.99999974737875E-005   9.52838864091275E-005        18.7239483885314 
      0.188094047023512                    0.15                       0        1.11728229321141                       0                       0                       0                       0                       0       -4266.30427274184       -2407.43421759708   1.83665020688687E-005       0.016170070538779        298.875205104383        300967.324584167       0.106480749455346                    1007       0.132780753825234   9.99999974737875E-005   9.51665064714872E-005        18.7001611166683 
      0.192096048024012                    0.15                       0        1.11727082675669                       0                       0                       0                       0                       0       -4266.52696172305       -2416.54976133086    1.8366614896259E-005      0.0161152231102141        298.877582696988        300969.721782766         0.1063497291357                    1007       0.132649729040457   9.99999974737875E-005   9.50494079922012E-005        18.6777357318033 
      0.196098049024512                    0.15                       0        1.11725936030197                       0                       0                       0                       0                       0       -4266.74965070426       -2425.66530506464   1.83667277236492E-005      0.0160603756816492        298.879960289593        300972.118981366       0.106218708816053                    1007        0.13251870425568   9.99999974737875E-005   9.49323095129153E-005        18.6553103469383 
      0.200100050025012                    0.15                       0        1.11724789384725                       0                       0                       0                       0                       0       -4266.97233968547       -2434.78084879842   1.83668405510395E-005      0.0160055282530843        298.882337882198        300974.516179965       0.106087688496406                    1007       0.132387679470903   9.99999974737875E-005   9.48152110336294E-005        18.6328849620733 
      0.204102051025513                    0.15                       0        1.11723706643542                       0                       0                       0                       0                       0       -4267.18524740886       -2443.18814680778   1.83669467066787E-005      0.0159537562184509        298.884560490084        300976.763491121       0.105957473286722                    1007       0.132257466102434   9.99999974737875E-005   9.46988331034545E-005        18.6119905894491 
      0.208104052026013                    0.15                       0        1.11722627868051                       0                       0                       0                       0                       0        -4267.3975481393       -2451.55149339807   1.83670524482908E-005      0.0159021750327317        298.886773480124         300979.00150075       0.105827308039536                    1007       0.132127303087813   9.99999974737875E-005   9.45824998882068E-005        18.5911912264497 
      0.212106053026513                    0.15                       0         1.1172154909256                       0                       0                       0                       0                       0       -4267.60984886975       -2459.91483998835    1.8367158189903E-005      0.0158505938470125        298.888986470164         300981.23951038        0.10569714279235                    1007       0.131997140073192   9.99999974737875E-005   9.44661666729591E-005        18.5703918634503 
      0.216108054027014                    0.15                       0        1.11720507016118                       0                       0                       0                       0                       0       -4267.81684421312       -2467.88722376325   1.83672596492919E-005      0.0158007605883734        298.891122089976        300983.392633817       0.105567702081515                    1007       0.131867700245692   9.99999974737875E-005   9.43504804028131E-005        18.5504484085991 
      0.220110055027514                    0.15                       0        1.11719488966399                       0                       0                       0                       0                       0        -4268.0203661401       -2475.60364569492   1.83673583051259E-005      0.0157520716908337        298.893207055798        300985.490182591       0.105438735721826                    1007       0.131738733886003   9.99999974737875E-005   9.42352176851231E-005        18.5310653135024 
      0.224112056028014                    0.15                       0        1.11718470916681                       0                       0                       0                       0                       0       -4268.22388806708       -2483.32006762659   1.83674569609599E-005       0.015703382793294        298.895292021621        300987.587731366       0.105309769362137                    1007       0.131609767526314   9.99999974737875E-005   9.41199549674331E-005        18.5116822184057 
      0.228114057028514                    0.15                       0        1.11717468133385                       0                       0                       0                       0                       0       -4268.42541680997       -2490.88641452074   1.83675541608744E-005      0.0156553846864536        298.897345233286        300989.652763882       0.105181193608174                    1007       0.131481192368695   9.99999974737875E-005   9.40050410880512E-005        18.4926314733218 