VARIABLES = "X"
 "Y"
 "Z"
 "RHO"
 "U"
 "V"
 "W"
 "VelocityMagnitude"
 "Mach"
 "P"
 "P_tot"
 "Vislam"
 "SkinFrictionCoefficient"
 "T"
 "H0"
 "COND_TURB"
 "CP"
 "COND_eff"
 "D"
 "K"
 "VIS_T"
 "YPLUS"
ZONE
DT=(DOUBLE,DOUBLE,DOUBLE,DOUBLE,DOUBLE,DOUBLE,DOUBLE,DOUBLE,DOUBLE,DOUBLE,DOUBLE,DOUBLE,DOUBLE,DOUBLE,DOUBLE,DOUBLE,DOUBLE,DOUBLE,DOUBLE,DOUBLE,DOUBLE,DOUBLE)
                    7.9                    0.15                       0        1.11233493238688                       0                       0                       0                       0                       0       -4495.36514892578       -4179.98029785156   1.83954971134881E-005     0.00346017429837957        299.486220932007        301582.640234375      0.0447857467923313                    1007      0.0710857467725873        451302.941015625                       0   4.00269836518419E-005        21.3784857988358 
                    7.9                    0.15    0.000233488992661774        1.11282222374326        28.9560073818213   1.45490975823027E-008   2.34365874116743E-005        28.9560073818213      0.0835964628291645       -4495.36511179292       -4016.40578695038   1.83892782174374E-005                       0        299.279694951644        301880.120196655       0.463421455654254                    1007        0.48972145645737        358353.849687212        35.1893520627126    0.000414180044865686   9.07310984753002E-006 
                    7.9                    0.15    0.000466977985323549        1.11345962772751        34.8397089912016   2.16426126904384E-008   5.57475627169644E-005        34.8397089912016       0.100611112365472       -4495.36491088867       -3814.88305413456   1.83811470498853E-005                       0        299.170485394516        301887.559548369       0.994320146034859                    1007        1.02062014759324        229080.343867585        43.4260188084003    0.000888667440862972                       0 
                    7.9                    0.15    0.000700466977985324        1.11387176735388        37.9747711164518   2.60147561041717E-008   8.90439735978409E-005        37.9747711164518       0.109684739686583       -4495.36491088867       -3688.11948317208   1.83758928743143E-005                       0        299.065021525085        301889.054293373        1.39850091037594                    1007        1.42480086383663        151397.588268343        42.5393493617722     0.00124990145692419                       0 
                    7.9                    0.15    0.000933955970647098        1.11417756699871        40.3003056403507   2.88172414693989E-008    0.000126003958490814        40.3003056403507       0.116417552391979       -4495.36490710266       -3586.65692884547   1.83719957577001E-005                       0        298.984958586454        301896.686990339        1.81454625516506                    1007         1.8408462104744        112090.478296903        42.1172008636056     0.00162173942724834                       0 
                    7.9                    0.15     0.00116744496330887        1.11442301658663        42.0620674327441   3.07330512321174E-008    0.000165309158766428        42.0620674327441       0.121520346718753       -4495.36470691391       -3504.81676043524   1.83688701483802E-005                       0        298.920206900261        301903.109273186        2.23587908433747                    1007        2.26217913143475        90452.0785036188        41.8795777112796     0.00199830311842625                       0 
                    7.9                    0.15     0.00140093395597065        1.11463543444089        43.5359337753828   3.22727699531583E-008    0.000206226992938974        43.5359337753828       0.125790470348528       -4495.36453245147       -3433.80284271196   1.83661658560911E-005                       0        298.863994479505        301908.808409626        2.65836518987482                    1007        2.68466525956457        75387.6254573771        41.7042282778395     0.00237589746316271                       0 
                    7.9                    0.15     0.00163442294863242        1.11482543087238        44.8198118362573   3.36032556441274E-008    0.000248414016001127        44.8198118362573       0.129511008147662       -4495.36442260742       -3370.16510830084   1.83637473656257E-005                       0        298.813606477476        301913.981076043        3.08097875307194                    1007        3.10727882276169        64138.5861242371        41.5637327809164     0.00275360568000853                       0 
                    7.9                    0.15      0.0018679119412942        1.11499546621941        45.9386956994414   3.47765135233265E-008    0.000291882520770422        45.9386956994414       0.132754192080598       -4495.36442260742       -3313.11494321596   1.83615831464187E-005                       0        298.768424791359          301918.6568999        3.50320598068623                    1007        3.52950605633645        55793.2886935734        41.4486164708717     0.00313096857812928                       0 
                    7.9                    0.15     0.00210140093395597        1.11514451909023        46.8915865463358   3.58572995942441E-008    0.000337019211248375        46.8915865463358       0.135516992940066       -4495.36417415699       -3263.02599718206   1.83596866090916E-005                       0        298.728751517682        301922.809349206         3.9237337739236                    1007        3.95003378637466        49781.6955032553          41.35246018289     0.00350681265923991                       0 
                    7.9                    0.15     0.00233488992661774        1.11528654149937        47.7898261817272    3.6918029525012E-008     0.00038277165964708        47.7898261817272       0.138121616118782       -4495.36393432617       -3215.27565670875   1.83578798652713E-005                       0        298.690932815616        301926.779567395        4.34344333971085                    1007        4.36974331595382        44471.9937642031        41.2618432263931     0.00388192547135301                       0 
                    7.9                    0.15     0.00256837891927952        1.11541257859497        48.5661080692496   3.79480170350293E-008     0.00043009147986768        48.5661080692496       0.140373213450144       -4495.36393432617         -3172.858307103   1.83562775720412E-005                       0        298.657352935379        301930.318948478        4.76069564308736                    1007        4.78699575449334        40566.4785525505        41.1818762085077     0.00425484216502756                       0 
                    7.9                    0.15     0.00280186791194129        1.11553341314508         49.304038504611   3.89805407154863E-008    0.000478023609217597         49.304038504611       0.142513764400379       -4495.36385472028       -3132.18050782763   1.83547415482231E-005                       0         298.62515663734        301933.720958564        5.17669448474232                    1007        5.20299468258206         37029.226564187          41.10452484499     0.00462663860773413                       0 
                    7.9                    0.15     0.00303535690460307        1.11564373359578        49.9644588600995   4.00095902747734E-008    0.000527217094319544        49.9644588600995       0.144429885152973       -4495.36361423461       -3095.01862044523   1.83533394977168E-005                       0        298.595757264694        301936.845348335        5.59016030034855                    1007        5.61646049818829        34236.2535126309        41.0324630519697     0.00499617122163488                       0 
                    7.9                    0.15     0.00326884589726484        1.11575014366451        50.5970196195136   4.10437028799018E-008    0.000576967987102815        50.5970196195136       0.146265323213964       -4495.36338033216       -3059.16227308322   1.83519870886517E-005                       0        298.567390631567        301939.858975239        6.00227743136544                    1007        6.02857759711887         31669.496167281        40.9619086251672     0.00536449839970234                       0 
                    7.9                    0.15     0.00350233488992662        1.11584745511309        51.1647637250022   4.20803191519118E-008    0.000628042654980669        51.1647637250022       0.147913049115454       -4495.36316174494       -3026.34354895344   1.83507501656567E-005                       0        298.541426949731        301942.614922917        6.41125765698675                    1007        6.43755771004767        29629.0399291169        40.8948652565887     0.00573002185478436                       0 
                    7.9                    0.15     0.00373582388258839        1.11594404212986        51.7274670414239   4.31197543909843E-008    0.000679236652023598        51.7274670414239       0.149546172981987       -4495.36294448613       -2993.76809373208    1.8349522490959E-005                       0        298.515656775111        301945.350722933        6.81989440405089                    1007        6.84619435751158        27623.5745924069        40.8280396866824     0.00609523832895726                       0 
                    7.9                    0.15     0.00396931287525017        1.11603049119238        52.2197559336134   4.41611342590478E-008     0.00073221231393971        52.2197559336134       0.150975323462988       -4495.36274577942       -2964.59178856213   1.83484239745245E-005                       0        298.492594377397        301947.805148235        7.22373891950522                    1007        7.25003887296592        26106.8943498398        40.7642757896095     0.00645617176832259                       0 
                    7.9                    0.15     0.00420280186791194        1.11611694025489        52.7120435383425   4.52001144022482E-008    0.000785196338841502        52.7120435383425       0.152404470218699       -4495.36254707271       -2935.41561156601   1.83473254580901E-005                       0        298.469531979683        301950.259573536        7.62758401312461                    1007        7.65388396658531        24590.2208699681        40.7005134660992     0.00681710571991534                       0 
                    7.9                    0.15     0.00443629086057372        1.11619778277163        53.1663322680269    4.6233987512349E-008    0.000839364523250441        53.1663322680269       0.153723515313526       -4495.36241442531       -2908.12419300058   1.83462984308731E-005                       0        298.447963312658        301952.556957682        8.02791101032884                    1007        8.05421107132295        23301.0060892215        40.6380872946735     0.00717489551261549                       0 
                    7.9                    0.15     0.00466977985323549        1.11627503210135        53.5962757846217   4.72610155851199E-008    0.000894305085684881        53.5962757846217       0.154972020164702       -4495.36231799369       -2882.04041232432   1.83453172014808E-005                       0        298.427351186323        301954.753737239        8.42598548330647                    1007        8.45228572072267        22157.5171767243        40.5765199642449     0.00753067220214345                       0 
                    7.9                    0.15     0.00490326884589727        1.11635228292118        54.0262206363605   4.82900796736909E-008    0.000949237230563958        54.0262206363605       0.156220528927432       -4495.36222766558       -2855.95650042246   1.83443359720885E-005                       0        298.406739441458        301956.950516796        8.82405906817489                    1007        8.85035948201317        21014.0226001646        40.5149507741513     0.00788644809422644                       0 
                    7.9                    0.15     0.00513675783855904        1.11642238042195        54.4088929946261   4.92929225576934E-008     0.00100600431331488        54.4088929946261       0.157332043491396       -4495.36199582238       -2832.27674268369   1.83434457066921E-005                       0        298.388036972043        301958.938029716        9.21632829133377                    1007        9.24262857617857        20116.2868574851        40.4547303383611     0.00823703623251602                       0 
                    7.9                    0.15     0.00537024683122081        1.11649174336183        54.7866998945028   5.02914527093346E-008     0.00106296860253676        54.7866998945028       0.158429457929494       -4495.36175552131       -2808.84450116031   1.83425648239038E-005                       0        298.369531341732        301960.904009846        9.60800155384077                    1007        9.63430166634497        19243.8435827828        40.3946507826603     0.00858709172195981                       0 
                    7.9                    0.15     0.00560373582388259        1.11656110481158        55.1645080818397   5.12915975249338E-008     0.00111992449384835        55.1645080818397       0.159526876279147       -4495.36150911671       -2785.41212230784   1.83416839183781E-005                       0         298.35102532995        301962.869989976        9.99967352888743                    1007         10.025973480972        18371.3955473383        40.3345691288761     0.00893714605889191                       0 
                    7.9                    0.15     0.00583722481654436        1.11662408595321        55.5011604880258    5.2247818798213E-008     0.00117884910490093        55.5011604880258       0.160505002348349       -4495.36135334812        -2764.1224781571   1.83408843120204E-005                       0        298.334224819342        301964.660681514        10.3847557112929                    1007        10.4110557891333        17685.8713774411        40.2754344288953     0.00928131094193026                       0 
                    7.9                    0.15     0.00607071380920614        1.11668661670378        55.8349158084314   5.31997740056591E-008     0.00123792051697632        55.8349158084314       0.161474731242927       -4495.36120395642       -2742.98373436018   1.83400904029111E-005                       0        298.317544684576        301966.439040229        10.7693760183073                    1007        10.7956762539589        17013.5027704614        40.2163687381658     0.00962506303079522                       0 
                    7.9                    0.15     0.00630420280186791        1.11674914894447        56.1686726070322   5.41529049392883E-008     0.00129698364173598        56.1686726070322       0.162444464235324       -4495.36105456473       -2721.84484713063   1.83392965165393E-005                       0         298.30086416834        301968.217398944        11.1539945610241                    1007        11.1802949425661        16341.1300497122        40.1573006632505     0.00996881354805332                       0 
                    7.9                    0.15     0.00653769179452969        1.11680775140006         56.477434310584   5.50649476832323E-008     0.00135751632277023         56.477434310584       0.163341729221999       -4495.36091416566       -2702.03606773856   1.83385527773724E-005                       0        298.285235798457        301969.877128929        11.5334713300263                    1007        11.5597716719716        15768.4335844569         40.098686659265      0.0103079684971241                       0 
                    7.9                    0.15     0.00677118078719146        1.11686438132831          56.77364990612   5.59563665061649E-008      0.0014187866369969          56.77364990612       0.164202619414913       -4495.36077828037       -2682.89492639982    1.8337834209234E-005                       0        298.270135545861        301971.477314077        11.9103672227289                    1007        11.9366674319738        15245.7688980594        40.0403005729137      0.0106448167338276                       0 
                    7.9                    0.15     0.00700466977985324        1.11692101125656        57.0698640234609    5.6847030288623E-008     0.00148006501735018        57.0698640234609       0.165063505137477       -4495.36064239509       -2663.75393764898    1.8337115663833E-005                       0        298.255035293266        301973.077499225        12.2872654996174                    1007        12.3135655880826        14723.1077639081         39.981917252218       0.010981667112573                       0 
                    7.9                    0.15     0.00723815877251501         1.1169772631648        57.3637435311202   5.77328651292986E-008     0.00154150373251928        57.3637435311202       0.165917621245192       -4495.36049843958       -2644.73970339749   1.83364018953167E-005                       0        298.240035477437        301974.667219022        12.6635506335594                    1007         12.689850598941        14208.6567299339        39.9235634430063      0.0113179695061689                       0 
                    7.9                    0.15     0.00747164776517678        1.11702867687486        57.6277239431756   5.85472317598027E-008     0.00160509777580232        57.6277239431756       0.166685037266408       -4495.36025119501       -2627.34972616663   1.83357495561502E-005                       0        298.226321130594        301976.122995008        13.0320187950515                    1007        13.0583187604331        13799.3304994836        39.8656227420906      0.0116472857690543                       0 
                    7.9                    0.15     0.00770513675783856        1.11708008909479        57.8917027816684   5.93611649148291E-008     0.00166869952577967        57.8917027816684       0.167452448631011       -4495.36000395045       -2609.95991067894   1.83350972397212E-005                       0        298.212606783751        301977.578770994        13.4004901155898                    1007        13.4267900809714        13390.0073696192        39.8076851406164      0.0119766048491904                       0 
                    7.9                    0.15     0.00793862575050033        1.11713150280484        58.1556831937239   6.01755315453333E-008     0.00173229356906271        58.1556831937239       0.168219864652227       -4495.35975670589       -2592.56993344809   1.83344449005547E-005                       0        298.198892436907         301979.03454698        13.7689582770819                    1007        13.7952582424635        12980.6811391689        39.7497444397007      0.0123059211120757                       0 
                    7.9                    0.15     0.00817211474316211         1.1171823568929        58.4162461890717   6.09791877977896E-008     0.00179618940783481        58.4162461890717       0.168977369246201       -4495.35951219301       -2575.36925709111   1.83337996916521E-005                       0        298.185328750746        301980.473355534        14.1363019683169                    1007        14.1626019336985        12581.9877169392        39.6918363323319      0.0126342323726224                       0 
                    7.9                    0.15     0.00840560373582388        1.11722920920859        58.6523717536811   6.17062557544319E-008     0.00186224334056855        58.6523717536811        0.16966399872091       -4495.35928721401       -2559.52224269285    1.8333205470189E-005                       0        298.172842416372        301981.790832544        14.4956047425738                    1007        14.5219047079555        12259.3279004039        39.6341612964946      0.0129553570132328                       0 
                    7.9                    0.15     0.00863909272848565        1.11727606152429          58.88849721673   6.24333091340696E-008     0.00192829770880996          58.88849721673       0.170350627900912       -4495.35906223502        -2543.6752386944    1.8332611248726E-005                       0        298.160356081997        301983.108309555        14.8549077656543                    1007        14.8812077310359        11936.6682510083        39.5764864724836      0.0132764818762903                       0 
                    7.9                    0.15     0.00887258172114743        1.11732291383998          59.12462121397   6.31601521259966E-008     0.00199435836266795          59.12462121397       0.171037252827451       -4495.35883725602       -2527.82838479478   1.83320170272629E-005                       0        298.147869747622        301984.425786566        15.2142143799664                    1007         15.240514345348        11614.0110139154        39.5188147057311      0.0135976099498946                       0 
                    7.9                    0.15      0.0091060707138092        1.11736976615567        59.3607467785795   6.38872200826388E-008     0.00206041229540169        59.3607467785795        0.17172388230216       -4495.35861227702       -2511.98137039652   1.83314228057999E-005                       0        298.135383413247        301985.743263577        15.5735171542233                    1007        15.5998171196049        11291.3511973801        39.4611396698937       0.013918734590505                       0 
                    7.9                    0.15     0.00933955970647098        1.11741344393273        59.5779463606271   6.45403841818062E-008     0.00212851095282412        59.5779463606271       0.172355607746382       -4495.35840310493       -2497.20226282423   1.83308688427265E-005                       0         298.12373933439        301986.968175333        15.9250456604712                    1007        15.9513457040401        11020.9671044993        39.4035630793803      0.0142329109599289                       0 
                    7.9                    0.15     0.00957304869913276        1.11745623675508        59.7898700146104    6.5172946368527E-008     0.00219717961079122        59.7898700146104       0.172972027791567       -4495.35819833928       -2482.72085179555   1.83303261023396E-005                       0        298.112330048073        301988.167283006        16.2744069619976                    1007        16.3007071055497        10765.1557270168        39.3460139321157      0.0145451503847935                       0 
                    7.9                    0.15     0.00980653769179453        1.11749902957743        60.0017918566125   6.58053054288432E-008     0.00226585464249719        60.0017918566125       0.173588442435081       -4495.35799357362       -2468.23962082058   1.83297833619527E-005                       0        298.100920761756         301989.36639068        16.6237734968118                    1007        16.6500737284262        10509.3467787334        39.2884688379669      0.0148573944895541                       0 
                    7.9                    0.15      0.0100400266844563        1.11754182239977        60.2137155105959   6.64378676155641E-008     0.00233452330046429        60.2137155105959       0.174204862480266       -4495.35778880797        -2453.7582097919   1.83292406215659E-005                       0        298.089511475439        301990.565498353        16.9731347983382                    1007        16.9994351299358        10253.5354012508        39.2309196907023      0.0151696339144187                       0 
                    7.9                    0.15      0.0102735156771181        1.11758456921821        60.4253679736228   6.70692039395533E-008     0.00240322773453555        60.4253679736228       0.174820495707409       -4495.35758367979       -2439.29237198365   1.83286984697388E-005                       0        298.078114526016        301991.763265208        17.3223579819165                    1007        17.3486584122144        9998.39073831372        39.1733706673403      0.0154817498985821                       0 
                    7.9                    0.15      0.0105070046697799        1.11762377702406        60.6161581176089   6.76062364573028E-008     0.00247468437136776        60.6161581176089       0.175375600186754       -4495.35735066299       -2426.02455898169   1.83282015949462E-005                       0        298.067666635623        301992.857884888        17.6609559561012                    1007        17.6872563863991        9794.53543894206        39.1158311756308      0.0157843697722328                       0 
                    7.9                    0.15      0.0107404936624416        1.11766298482992        60.8069482615949   6.81432689750524E-008     0.00254614100819998        60.8069482615949       0.175930704666099        -4495.3571176462       -2412.75674597974   1.83277047201537E-005                       0         298.05721874523        301993.952504568        17.9995539302859                    1007        18.0258543605838         9590.6801395704        39.0582916839212      0.0160869896458835                       0 
                    7.9                    0.15      0.0109739826551034        1.11770219263577        60.9977364505487   6.86799756201398E-008     0.00261760291864627        60.9977364505487       0.176485803557508       -4495.35689073293       -2399.48913134204   1.83272078453611E-005                       0        298.046771236306        301995.046733623         18.338158556349                    1007        18.3644589866468        9386.82702525733        39.0007567221647       0.016389615445074                       0 
                    7.9                    0.15      0.0112074716477652        1.11774140044162        61.1885265945347   6.92170081378895E-008     0.00268905955547848        61.1885265945347       0.177040908036853       -4495.35665771614       -2386.22131834008   1.83267109705686E-005                       0        298.036323345912        301996.141353304        18.6767565305337                    1007        18.7030569608315        9182.97172588567        38.9432172304552      0.0166922353187247                       0 
                    7.9                    0.15       0.011440960640427        1.11778060824747        61.3793167385208   6.97540406556391E-008     0.00276051619231069        61.3793167385208       0.177596012516198       -4495.35642469935       -2372.95350533813    1.8326214095776E-005                       0        298.025875455519        301997.235972984        19.0153545047184                    1007        19.0416549350163        8979.11642651401        38.8856777387456      0.0169948551923754                       0 
                    7.9                    0.15      0.0116744496330887        1.11781733605691         61.555763577932   7.02164012735123E-008     0.00283428268306285         61.555763577932       0.178109492618106       -4495.35620780387       -2360.52320391035   1.83257485376693E-005                       0        298.016090858028        301998.259066393        19.3449537208183                    1007        19.3712541511161         8806.7276976411        38.8280676509975      0.0172894325333165                       0 
                    7.9                    0.15      0.0119079386257505        1.11785334031497        61.7280256864153   7.06569759907074E-008      0.0029087230852618        61.7280256864153       0.178610828599479       -4495.35599561187       -2348.33725067785   1.83252921163624E-005                       0        298.006499779562        301999.261291654        19.6719275041892                    1007        19.6982279344871        8643.51949826722        38.7704369665016      0.0175816634250699                       0 
                    7.9                    0.15      0.0121414276184123        1.11788934457303        61.9002877948986   7.10975507079026E-008     0.00298316348746075        61.9002877948986       0.179112164580853       -4495.35578341987       -2336.15129744534   1.83248356950555E-005                       0        297.996908701096        302000.263516916        19.9989012875602                    1007        20.0252017178581        8480.31129889335        38.7128062820058      0.0178738943168233                       0 
                    7.9                    0.15       0.012374916611074        1.11792534734097        62.0725478052983     7.153745200822E-008     0.00305760765278498        62.0725478052983       0.179613494415497       -4495.35556512435       -2323.96555478413    1.8324379296486E-005                       0         297.98731762263        302001.266132802        20.3258833917396                    1007        20.3521838220374        8317.10509536909        38.6551808427186      0.0181661326591574                       0 
                    7.9                    0.15      0.0126084056037358        1.11796135159903        62.2448099137816   7.19780267254153E-008     0.00313204805498393        62.2448099137816        0.18011483039687       -4495.35535293235       -2311.77960155162   1.83239228751791E-005                       0        297.977726544164        302002.268358063        20.6528571751106                    1007        20.6791576054084        8153.89689599521        38.5975501582228      0.0184583635509108                       0 
                    7.9                    0.15      0.0128418945963976        1.11799729531568        62.4167243944804   7.24166411918657E-008      0.0032065567279846        62.4167243944804       0.180615157440473       -4495.35513949528       -2299.61427103867   1.83234672287181E-005                       0        297.968151726168        302003.268732405         20.979563771435                    1007        21.0058641985139        7991.37057640123        38.5399155736121      0.0187503556400053                       0 