VARIABLES = "X"
 "Y"
 "Z"
 "RHO"
 "U"
 "V"
 "W"
 "VelocityMagnitude"
 "Mach"
 "P"
 "P_tot"
 "Vislam"
 "SkinFrictionCoefficient"
 "T"
 "H0"
 "COND_TURB"
 "CP"
 "COND_eff"
 "Ywall"
 "VIS_T"
 "YPLUS"
ZONE
DT=(DOUBLE,DOUBLE,DOUBLE,DOUBLE,DOUBLE,DOUBLE,DOUBLE,DOUBLE,DOUBLE,DOUBLE,DOUBLE,DOUBLE,DOUBLE,DOUBLE,DOUBLE,DOUBLE,DOUBLE,DOUBLE,DOUBLE,DOUBLE,DOUBLE)
                    7.9                    0.15                       0        1.11340290606022                       0                       0                       0                       0                       0       -4497.50758056641       -3577.01562194824   1.83815509672058E-005     0.00804132758639753        299.192245864868        301286.578515625      0.0685831912793219                    1007      0.0948831894434989   9.99999974737875E-005   6.12958004239772E-005        15.6805625915527 
                    7.9                    0.15   1.00033344448149E-006        1.11340720409372       0.219989797599109   5.39569411713471E-011   2.72983115218923E-007       0.219989797599109    0.000635526798573458       -4497.50758056641       -3576.17364512231   1.83814962292111E-005     0.00800110743813983        299.190340856697        301290.284047677      0.0694725966179464                    1007       0.095772594744858    0.000100525396956934   6.20907009343845E-005        15.6021336300283 
                    7.9                    0.15   2.00066688896299E-006        1.11341150212721       0.439979595198218   1.07913882342694E-010   5.45966230437846E-007       0.439979595198218     0.00127105359714692       -4497.50758056641       -3575.33166829637   1.83814414912164E-005     0.00796088728988213        299.188435848525         301293.98957973      0.0703620019565708                    1007      0.0966620000462171     0.00010105079644008   6.28856014447917E-005        15.5237046685039 
                    7.9                    0.15   3.00100033344448E-006        1.11341580016071       0.659969392797327   1.61870823514041E-010    8.1894934565677E-007       0.659969392797327     0.00190658039572037       -4497.50758056641       -3574.48969147044   1.83813867532217E-005     0.00792066714162443        299.186530840353        301297.695111782      0.0712514072951953                    1007      0.0975514053475763    0.000101576195923226   6.36805019551989E-005        15.4452757069795 
                    7.9                    0.15   4.00133377792597E-006         1.1134200981942       0.879959190396436   2.15827764685388E-010   1.09193246087569E-006       0.879959190396436     0.00254210719429383       -4497.50758056641       -3573.64771464451   1.83813320152269E-005     0.00788044699336673        299.184625832182        301301.400643834      0.0721408126338198                    1007      0.0984408106489354    0.000102101595406373   6.44754024656062E-005        15.3668467454551 
                    7.9                    0.15   5.00166722240747E-006         1.1134243962277        1.09994898799554   2.69784705856735E-010   1.36491557609462E-006        1.09994898799554     0.00317763399286729       -4497.50758056641       -3572.80573781857   1.83812772772322E-005     0.00784022684510902         299.18272082401        301305.106175887      0.0730302179724442                    1007      0.0993302159502946    0.000102626994889519   6.52703029760134E-005        15.2884177839307 
                    7.9                    0.15   6.00200066688896E-006         1.1134286942612        1.31993878559465   3.23741647028081E-010   1.63789869131354E-006        1.31993878559465     0.00381316079144075       -4497.50758056641       -3571.96376099264   1.83812225392375E-005     0.00780000669685132        299.180815815838        301308.811707939      0.0739196233110687                    1007       0.100219621251654    0.000103152394372665   6.60652034864207E-005        15.2099888224064 
                    7.9                    0.15   7.00233411137046E-006        1.11343299229469        1.53992858319376   3.77698588199428E-010   1.91088180653246E-006        1.53992858319376     0.00444868759001421       -4497.50758056641        -3571.1217841667   1.83811678012427E-005     0.00775978654859362        299.178910807667        301312.517239992      0.0748090286496932                    1007       0.101109026553013    0.000103677793855812   6.68601039968279E-005         15.131559860882 
                    7.9                    0.15   8.00266755585195E-006        1.11343729032819        1.75991838079287   4.31655529370775E-010   2.18386492175139E-006        1.75991838079287     0.00508421438858766       -4497.50758056641       -3570.27980734077    1.8381113063248E-005     0.00771956640033592        299.177005799495        301316.222772044      0.0756984339883177                    1007       0.101998431854372    0.000104203193338958   6.76550045072352E-005        15.0531308993576 
                    7.9                    0.15   9.00300100033344E-006        1.11344158836169        1.97990817839198   4.85612470542122E-010   2.45684803697031E-006        1.97990817839198     0.00571974118716112       -4497.50758056641       -3569.43783051484   1.83810583252533E-005     0.00767934625207822        299.175100791323        301319.928304096      0.0765878393269421                    1007       0.102887837155731    0.000104728592822104   6.84499050176424E-005        14.9747019378332 
                    7.9                    0.15   1.00033344448149E-005        1.11344588639518        2.19989797599109   5.39569411713469E-010   2.72983115218923E-006        2.19989797599109     0.00635526798573458       -4497.50758056641        -3568.5958536889   1.83810035872585E-005     0.00763912610382052        299.173195783151        301323.633836148      0.0774772446655666                    1007        0.10377724245709     0.00010525399230525   6.92448055280496E-005        14.8962729763088 
                    7.9                    0.15   1.10036678892964E-005        1.11345018442868         2.4198877735902   5.93526352884816E-010   3.00281426740816E-006         2.4198877735902     0.00699079478430804        -4497.5075805664       -3567.75387686297   1.83809488492638E-005     0.00759890595556282         299.17129077498        301327.339368201       0.078366650004191                    1007       0.104666647758449    0.000105779391788397   7.00397060384569E-005        14.8178440147844 
                    7.9                    0.15   1.20040013337779E-005        1.11345448246218        2.63987757118931   6.47483294056163E-010   3.27579738262708E-006        2.63987757118931     0.00762632158288149        -4497.5075805664       -3566.91190003703   1.83808941112691E-005     0.00755868580730512        299.169385766808        301331.044900253      0.0792560553428155                    1007       0.105556053059809    0.000106304791271543   7.08346065488641E-005          14.73941505326 
                    7.9                    0.15   1.30043347782594E-005        1.11345878049567        2.85986736878842    7.0144023522751E-010     3.548780497846E-006        2.85986736878842     0.00826184838145495       -4497.50758056641        -3566.0699232111   1.83808393732743E-005     0.00751846565904742        299.167480758636        301334.750432306        0.08014546068144                    1007       0.106445458361168    0.000106830190754689   7.16295070592713E-005        14.6609860917356 
                    7.9                    0.15   1.40046682227409E-005        1.11346307852917        3.07985716638753   7.55397176398857E-010   3.82176361306493E-006        3.07985716638753     0.00889737518002841       -4497.50758056641       -3565.22794638517   1.83807846352796E-005     0.00747824551078972        299.165575750465        301338.455964358      0.0810348660200645                    1007       0.107334863662527    0.000107355590237836   7.24244075696786E-005        14.5825571302112 
                    7.9                    0.15   1.50050016672224E-005        1.11346737656267        3.29984696398663   8.09354117570203E-010   4.09474672828385E-006        3.29984696398663     0.00953290197860187       -4497.50758056641       -3564.38596955923   1.83807298972849E-005     0.00743802536253202        299.163670742293         301342.16149641      0.0819242713586889                    1007       0.108224268963886    0.000107880989720982   7.32193080800858E-005        14.5041281686868 
                    7.9                    0.15   1.60053351117039E-005        1.11347167459616        3.51983676158574    8.6331105874155E-010   4.36772984350277E-006        3.51983676158574      0.0101684287771753       -4497.50758056641        -3563.5439927333   1.83806751592902E-005     0.00739780521427432        299.161765734121        301345.867028463      0.0828136766973134                    1007       0.109113674265245    0.000108406389204128   7.40142085904931E-005        14.4256992071624 
                    7.9                    0.15   1.70056685561854E-005        1.11347597262966        3.73982655918485   9.17267999912897E-010    4.6407129587217E-006        3.73982655918485      0.0108039555757488       -4497.50758056641       -3562.70201590737   1.83806204212954E-005     0.00735758506601662         299.15986072595        301349.572560515      0.0837030820359378                    1007       0.110003079566604    0.000108931788687275   7.48091091009003E-005         14.347270245638 
                    7.9                    0.15   1.80060020006669E-005        1.11348027066316        3.95981635678396   9.71224941084244E-010   4.91369607394062E-006        3.95981635678396      0.0114394823743222       -4497.50758056641       -3561.86003908143   1.83805656833007E-005     0.00731736491775891        299.157955717778        301353.278092567      0.0845924873745623                    1007       0.110892484867963    0.000109457188170421   7.56040096113076E-005        14.2688412841136 
                    7.9                    0.15   1.90063354451484E-005        1.11348456869665        4.17980615438307   1.02518188225559E-009   5.18667918915954E-006        4.17980615438307      0.0120750091728957       -4497.50758056641        -3561.0180622555    1.8380510945306E-005     0.00727714476950121        299.156050709606         301356.98362462      0.0854818927131868                    1007       0.111781890169323    0.000109982587653567   7.63989101217148E-005        14.1904123225892 
                    7.9                    0.15   2.00066688896299E-005        1.11348886673015        4.39979595198218   1.07913882342694E-009   5.45966230437846E-006        4.39979595198218      0.0127105359714692       -4497.50758056641       -3560.17608542956   1.83804562073112E-005     0.00723692462124351        299.154145701435        301360.689156672      0.0863712980518112                    1007       0.112671295470682    0.000110507987136713    7.7193810632122E-005        14.1119833610648 
                    7.9                    0.15   2.10070023341114E-005        1.11349316476364        4.61978574958129   1.13309576459828E-009   5.73264541959739E-006        4.61978574958129      0.0133460627700426       -4497.50758056641       -3559.33410860363   1.83804014693165E-005     0.00719670447298581        299.152240693263        301364.394688724      0.0872607033904357                    1007       0.113560700772041     0.00011103338661986   7.79887111425293E-005        14.0335543995404 
                    7.9                    0.15   2.20073357785929E-005        1.11349746279714         4.8397755471804   1.18705270576963E-009   6.00562853481631E-006         4.8397755471804      0.0139815895686161       -4497.50758056641        -3558.4921317777   1.83803467313218E-005     0.00715648432472811        299.150335685092        301368.100220777      0.0881501087290602                    1007         0.1144501060734    0.000111558786103006   7.87836116529366E-005         13.955125438016 
                    7.9                    0.15   2.30076692230744E-005        1.11350176083064        5.05976534477951   1.24100964694098E-009   6.27861165003523E-006        5.05976534477951      0.0146171163671895       -4497.50758056641       -3557.65015495176    1.8380291993327E-005     0.00711626417647041         299.14843067692        301371.805752829      0.0890395140676846                    1007       0.115339511374759    0.000112084185586152   7.95785121633438E-005        13.8766964764916 
                    7.9                    0.15   2.40080026675559E-005        1.11350605886413        5.27975514237862   1.29496658811233E-009   6.55159476525416E-006        5.27975514237862       0.015252643165763       -4497.50758056641       -3556.80817812583   1.83802372553323E-005     0.00707604402821271        299.146525668748        301375.511284881      0.0899289194063091                    1007       0.116228916676118    0.000112609585069299    8.0373412673751E-005        13.7982675149672 
                    7.9                    0.15   2.50083361120373E-005        1.11351035689763        5.49974493997772   1.34892352928367E-009   6.82457788047308E-006        5.49974493997772      0.0158881699643364       -4497.50758056641       -3555.96620129989   1.83801825173376E-005     0.00703582387995501        299.144620660576        301379.216816934      0.0908183247449336                    1007       0.117118321977477    0.000113134984552445   8.11683131841583E-005        13.7198385534428 
                    7.9                    0.15   2.60086695565188E-005        1.11351465493113        5.71973473757683   1.40288047045502E-009     7.097560995692E-006        5.71973473757683      0.0165236967629099       -4497.50758056641       -3555.12422447396   1.83801277793429E-005     0.00699560373169731        299.142715652405        301382.922348986      0.0917077300835581                    1007       0.118007727278837    0.000113660384035591   8.19632136945655E-005        13.6414095919184 
                    7.9                    0.15   2.70090030010003E-005        1.11351895296462        5.93972453517594   1.45683741162637E-009   7.37054411091092E-006        5.93972453517594      0.0171592235614834       -4497.50758056641       -3554.28224764803   1.83800730413481E-005     0.00695538358343961        299.140810644233        301386.627881038      0.0925971354221825                    1007       0.118897132580196    0.000114185783518737   8.27581142049727E-005         13.562980630394 
                    7.9                    0.15   2.80093364454818E-005        1.11352325099812        6.15971433277505   1.51079435279771E-009   7.64352722612985E-006        6.15971433277505      0.0177947503600568       -4497.50758056641       -3553.44027082209   1.83800183033534E-005     0.00691516343518191        299.138905636062        301390.333413091       0.093486540760807                    1007       0.119786537881555    0.000114711183001884     8.355301471538E-005        13.4845516688696 
                    7.9                    0.15   2.90096698899633E-005        1.11352754903162        6.37970413037416   1.56475129396906E-009   7.91651034134877E-006        6.37970413037416      0.0184302771586303       -4497.50758056641       -3552.59829399616   1.83799635653587E-005      0.0068749432869242         299.13700062789        301394.038945143      0.0943759460994314                    1007       0.120675943182914     0.00011523658248503   8.43479152257872E-005        13.4061227073452 
                    7.9                    0.15   3.00100033344448E-005        1.11353184706511        6.59969392797327   1.61870823514041E-009    8.1894934565677E-006        6.59969392797327      0.0190658039572037       -4497.50758056641       -3551.75631717022   1.83799088273639E-005     0.00683472313866651        299.135095619718        301397.744477196      0.0952653514380559                    1007       0.121565348484273    0.000115761981968176   8.51428157361945E-005        13.3276937458208 
                    7.9                    0.15   3.10103367789263E-005        1.11353614509861        6.81968372557238   1.67266517631175E-009   8.46247657178662E-006        6.81968372557238      0.0197013307557772       -4497.50758056641       -3550.91434034429   1.83798540893692E-005      0.0067945029904088        299.133190611546        301401.450009248      0.0961547567766804                    1007       0.122454753785632    0.000116287381451323   8.59377162466017E-005        13.2492647842964 
                    7.9                    0.15   3.20106702234078E-005        1.11354044313211        7.03967352317149    1.7266221174831E-009   8.73545968700554E-006        7.03967352317149      0.0203368575543506       -4497.50758056641       -3550.07236351835   1.83797993513745E-005      0.0067542828421511        299.131285603375          301405.1555413      0.0970441621153048                    1007       0.123344159086991    0.000116812780934469   8.67326167570089E-005         13.170835822772 
                    7.9                    0.15   3.30110036678893E-005         1.1135447411656        7.25966332077059   1.78057905865445E-009   9.00844280222446E-006        7.25966332077059      0.0209723843529241       -4497.50758056641       -3549.23038669242   1.83797446133797E-005      0.0067140626938934        299.129380595203        301408.861073353      0.0979335674539293                    1007       0.124233564388351    0.000117338180417615   8.75275172674162E-005        13.0924068612476 
                    7.9                    0.15   3.40113371123708E-005         1.1135490391991         7.4796531183697   1.83453599982579E-009   9.28142591744339E-006         7.4796531183697      0.0216079111514976       -4497.50758056641       -3548.38840986649    1.8379689875385E-005      0.0066738425456357        299.127475587031        301412.566605405      0.0988229727925538                    1007        0.12512296968971    0.000117863579900762   8.83224177778235E-005        13.0139778997232 
                    7.9                    0.15   3.50116705568523E-005         1.1135533372326        7.69964291596881   1.88849294099714E-009   9.55440903266231E-006        7.69964291596881       0.022243437950071       -4497.50758056641       -3547.54643304055   1.83796351373903E-005       0.006633622397378         299.12557057886        301416.272137457      0.0997123781311783                    1007       0.126012374991069    0.000118388979383908   8.91173182882307E-005        12.9355489381988 
                    7.9                    0.15   3.60120040013338E-005        1.11355763526609        7.91963271356792   1.94244988216849E-009   9.82739214788123E-006        7.91963271356792      0.0228789647486445       -4497.50758056641       -3546.70445621462   1.83795803993955E-005      0.0065934022491203        299.123665570688         301419.97766951       0.100601783469803                    1007       0.126901780292428    0.000118914378867054   8.99122187986379E-005        12.8571199766744 
                    7.9                    0.15   3.70123374458153E-005        1.11356193329959        8.13962251116703   1.99640682333984E-009   1.01003752631002E-005        8.13962251116703      0.0235144915472179       -4497.50758056641       -3545.86247938869   1.83795256614008E-005      0.0065531821008626        299.121760562516        301423.683201562       0.101491188808427                    1007       0.127791185593787      0.0001194397783502   9.07071193090452E-005          12.77869101515 
                    7.9                    0.15   3.80126708902968E-005        1.11356623133308        8.35961230876614   2.05036376451118E-009   1.03733583783191E-005        8.35961230876614      0.0241500183457914       -4497.50758056641       -3545.02050256275   1.83794709234061E-005      0.0065129619526049        299.119855554345        301427.388733614       0.102380594147052                    1007       0.128680590895146    0.000119965177833347   9.15020198194524E-005        12.7002620536256 
                    7.9                    0.15   3.90130043347783E-005        1.11357052936658        8.57960210636525   2.10432070568253E-009    1.0646341493538E-005        8.57960210636525      0.0247855451443649       -4497.50758056641       -3544.17852573682   1.83794161854114E-005      0.0064727418043472        299.117950546173        301431.094265667       0.103269999485676                    1007       0.129569996196505    0.000120490577316493   9.22969203298596E-005        12.6218330921012 
                    7.9                    0.15   4.00133377792598E-005        1.11357482740008        8.79959190396436   2.15827764685388E-009   1.09193246087569E-005        8.79959190396436      0.0254210719429383       -4497.50758056641       -3543.33654891088   1.83793614474166E-005      0.0064325216560895        299.116045538001        301434.799797719       0.104159404824301                    1007       0.130459401497865    0.000121015976799639   9.30918208402669E-005        12.5434041305768 
                    7.9                    0.15   4.10136712237413E-005        1.11357912543357        9.01958170156347   2.21223458802522E-009   1.11923077239759E-005        9.01958170156347      0.0260565987415118       -4497.50758056641       -3542.49457208495   1.83793067094219E-005      0.0063923015078318         299.11414052983        301438.505329771       0.105048810162925                    1007       0.131348806799224    0.000121541376282786   9.38867213506742E-005        12.4649751690524 
                    7.9                    0.15   4.20140046682227E-005        1.11358342346707        9.23957149916258   2.26619152919657E-009   1.14652908391948E-005        9.23957149916258      0.0266921255400852       -4497.50758056641       -3541.65259525902   1.83792519714272E-005      0.0063520813595741        299.112235521658        301442.210861824        0.10593821550155                    1007       0.132238212100583    0.000122066775765932   9.46816218610814E-005         12.386546207528 
                    7.9                    0.15   4.30143381127042E-005        1.11358772150057        9.45956129676168   2.32014847036792E-009   1.17382739544137E-005        9.45956129676168      0.0273276523386587       -4497.50758056641       -3540.81061843308   1.83791972334324E-005     0.00631186121131639        299.110330513486        301445.916393876       0.106827620840174                    1007       0.133127617401942    0.000122592175249078   9.54765223714886E-005        12.3081172460037 
                    7.9                    0.15   4.40146715571857E-005        1.11359201953406         9.6795510943608   2.37410541153926E-009   1.20112570696326E-005         9.6795510943608      0.0279631791372321       -4497.50758056641       -3539.96864160715   1.83791424954377E-005     0.00627164106305869        299.108425505315        301449.621925928       0.107717026178798                    1007       0.134017022703301    0.000123117574732224   9.62714228818959E-005        12.2296882844793 
                    7.9                    0.15   4.50150050016672E-005        1.11359631756756         9.8995408919599   2.42806235271061E-009   1.22842401848515E-005         9.8995408919599      0.0285987059358056        -4497.5075805664       -3539.12666478121    1.8379087757443E-005     0.00623142091480099        299.106520497143        301453.327457981       0.108606431517423                    1007        0.13490642800466    0.000123642974215371   9.70663233923031E-005        12.1512593229549 
                    7.9                    0.15   4.60153384461487E-005        1.11360061560106         10.119530689559   2.48201929388196E-009   1.25572233000705E-005         10.119530689559      0.0292342327343791       -4497.50758056641       -3538.28468795528   1.83790330194482E-005     0.00619120076654329        299.104615488971        301457.032990033       0.109495836856047                    1007       0.135795833306019    0.000124168373698517   9.78612239027104E-005        12.0728303614305 
                    7.9                    0.15   4.70156718906302E-005        1.11360491363455        10.3395204871581    2.5359762350533E-009   1.28302064152894E-005        10.3395204871581      0.0298697595329525       -4497.50758056641       -3537.44271112935   1.83789782814535E-005     0.00615098061828559          299.1027104808        301460.738522085       0.110385242194672                    1007       0.136685238607379    0.000124693773181663   9.86561244131176E-005        11.9944013999061 
                    7.9                    0.15   4.80160053351117E-005        1.11360921166805        10.5595102847572   2.58993317622465E-009   1.31031895305083E-005        10.5595102847572       0.030505286331526       -4497.50758056641       -3536.60073430341   1.83789235434588E-005     0.00611076047002789        299.100805472628        301464.444054138       0.111274647533296                    1007       0.137574643908738     0.00012521917266481   9.94510249235248E-005        11.9159724383817 
                    7.9                    0.15   4.90163387795932E-005        1.11361350970155        10.7795000823563     2.643890117396E-009   1.33761726457272E-005        10.7795000823563      0.0311408131300994       -4497.50758056641       -3535.75875747748    1.8378868805464E-005     0.00607054032177019        299.098900464456         301468.14958619       0.112164052871921                    1007       0.138464049210097    0.000125744572147956    0.000100245925433932        11.8375434768573 
                    7.9                    0.15   5.00166722240747E-005        1.11361780773504        10.9994898799554   2.69784705856734E-009   1.36491557609462E-005        10.9994898799554      0.0317763399286729       -4497.50758056641       -3534.91678065154   1.83788140674693E-005     0.00603032017351249        299.096995456285        301471.855118243       0.113053458210545                    1007       0.139353454511456    0.000126269971631102    0.000101040825944339        11.7591145153329 
                    7.9                    0.15   5.10170056685562E-005        1.11362210576854        11.2194796775546   2.75180399973869E-009   1.39221388761651E-005        11.2194796775546      0.0324118667272463       -4497.50758056641       -3534.07480382561   1.83787593294746E-005     0.00599010002525479        299.095090448113        301475.560650295        0.11394286354917                    1007       0.140242859812815    0.000126795371114249    0.000101835726454747        11.6806855538085 
                    7.9                    0.15   5.20173391130377E-005        1.11362640380204        11.4394694751537   2.80576094091004E-009    1.4195121991384E-005        11.4394694751537      0.0330473935258198       -4497.50758056641       -3533.23282699968   1.83787045914799E-005     0.00594987987699709        299.093185439941        301479.266182347       0.114832268887794                    1007       0.141132265114174    0.000127320770597395    0.000102630626965154        11.6022565922841 
                    7.9                    0.15   5.30176725575192E-005        1.11363070183553        11.6594592727528   2.85971788208138E-009   1.44681051066029E-005        11.6594592727528      0.0336829203243933       -4497.50758056641       -3532.39085017374   1.83786498534851E-005     0.00590965972873938         299.09128043177        301482.971714399       0.115721674226419                    1007       0.142021670415533    0.000127846170080541    0.000103425527475561        11.5238276307597 
                    7.9                    0.15   5.40180060020007E-005        1.11363499986903        11.8794490703519   2.91367482325273E-009   1.47410882218219E-005        11.8794490703519      0.0343184471229667       -4497.50758056641       -3531.54887334781   1.83785951154904E-005     0.00586943958048168        299.089375423598        301486.677246452       0.116611079565043                    1007       0.142911075716892    0.000128371569563687    0.000104220427985968        11.4453986692353 
                    7.9                    0.15   5.50183394464822E-005        1.11363929790252         12.099438867951   2.96763176442408E-009   1.50140713370408E-005         12.099438867951      0.0349539739215402       -4497.50758056641       -3530.70689652188   1.83785403774957E-005     0.00582921943222399        299.087470415426        301490.382778504       0.117500484903668                    1007       0.143800481018252    0.000128896969046834    0.000105015328496376        11.3669697077109 
                    7.9                    0.15   5.60186728909637E-005        1.11364359593602        12.3194286655501   3.02158870559543E-009   1.52870544522597E-005        12.3194286655501      0.0355895007201136       -4497.50758056641       -3529.86491969594   1.83784856395009E-005     0.00578899928396628        299.085565407255        301494.088310557       0.118389890242292                    1007       0.144689886319611     0.00012942236852998    0.000105810229006783        11.2885407461865 
                    7.9                    0.15   5.70190063354451E-005        1.11364789396952        12.5394184631492   3.07554564676677E-009   1.55600375674786E-005        12.5394184631492      0.0362250275186871       -4497.50758056641       -3529.02294287001   1.83784309015062E-005     0.00574877913570858        299.083660399083        301497.793842609       0.119279295580917                    1007        0.14557929162097    0.000129947768013126     0.00010660512951719        11.2101117846621 