VARIABLES = "X"
 "Y"
 "Z"
 "RHO"
 "U"
 "V"
 "W"
 "VelocityMagnitude"
 "Mach"
 "P"
 "P_tot"
 "Vislam"
 "SkinFrictionCoefficient"
 "T"
 "H0"
 "COND_TURB"
 "CP"
 "COND_eff"
 "Ywall"
 "VIS_T"
 "YPLUS"
ZONE
DT=(DOUBLE,DOUBLE,DOUBLE,DOUBLE,DOUBLE,DOUBLE,DOUBLE,DOUBLE,DOUBLE,DOUBLE,DOUBLE,DOUBLE,DOUBLE,DOUBLE,DOUBLE,DOUBLE,DOUBLE,DOUBLE,DOUBLE,DOUBLE,DOUBLE)
                      0                    0.15                       0        1.12024164199829                       0                       0                       0                       0                       0       -4072.07763671875                       0   1.83577285497449E-005      0.0123801780864596        297.594177246094              301440.625     0.00685334950685501                    1007      0.0331533513963223   2.49999993684469E-005   6.12513849773677E-006        8.83442878723145 
    0.00400200100050025                    0.15                       0        1.11987782317797                       0                       0                       0                       0                       0       -4081.52216611235       -886.831141278651    1.8360944402897E-005      0.0116646682979607        297.985035181165        301311.260552151     0.00612274562430313                    1007      0.0324227472346997   2.49999993684469E-005   5.47216591965379E-006        8.65125813849155 
     0.0080040020010005                    0.15                       0        1.11951400435764                       0                       0                       0                       0                       0       -4090.96669550596        -1773.6622825573   1.83641602560492E-005      0.0109491585094618        298.375893116236        301181.896104302     0.00539214174175125                    1007      0.0316921430730772   2.49999993684469E-005    4.8191933415708E-006        8.46808748975165 
     0.0120060030015008                    0.15                       0        1.11915018553731                       0                       0                       0                       0                       0       -4100.41122489956       -2660.49342383595   1.83673761092013E-005      0.0102336487209628        298.766751051307        301052.531656453     0.00466153785919936                    1007      0.0309615389114547   2.49999993684469E-005   4.16622076348782E-006        8.28491684101175 
      0.016008004002001                    0.15                       0        1.11873631801767                       0                       0                       0                       0                       0        -4110.3611739952       -3049.39995021925    1.8371153344887E-005     0.00941914232334064        298.958755134403        301066.028373562     0.00388770630198104                    1007      0.0301877070058057   2.49999993684469E-005   3.47461360192134E-006        8.05683210123891 
     0.0200100050025013                    0.15                       0        1.11829698491299                       0                       0                       0                       0                       0       -4120.56828878306        -3184.9544055475   1.83752162210558E-005     0.00855426485508142         299.04957917191        301152.215154452     0.00309187980702312                    1007      0.0293918801271256   2.49999993684469E-005   2.76334854145393E-006        7.80589434789263 
     0.0240120060030015                    0.15                       0        1.11785765180831                       0                       0                       0                       0                       0       -4130.77540357093       -3320.50886087575   1.83792790972245E-005      0.0076893873868222        299.140403209417        301238.401935343      0.0022960533120652                    1007      0.0285960532484456   2.49999993684469E-005   2.05208348098653E-006        7.55495659454635 
     0.0280140070035018                    0.15                       0        1.11752240737717                       0                       0                       0                       0                       0       -4138.20471221939       -3425.27998569597    1.8382433302196E-005     0.00703209579077592        299.210415373092        301305.316736493     0.00172699141271157                    1007      0.0280269911357124   2.49999993684469E-005   1.54348789607823E-006        7.35123335188063 
      0.032016008004002                    0.15                       0        1.11740281332607                       0                       0                       0                       0                       0       -4139.87897635341        -3466.2743642329   1.83837049268407E-005     0.00680487954023742        299.237309603288        301332.303948849     0.00162773923963548                    1007      0.0279277391021716   2.49999993684469E-005   1.45478189130261E-006        7.24532889031719 
     0.0360180090045022                    0.15                       0        1.11728321927497                       0                       0                       0                       0                       0       -4141.55324048743       -3507.26874276982   1.83849765514855E-005     0.00657766328969892        299.264203833484        301359.291161206      0.0015284870665594                    1007      0.0278284870686309   2.49999993684469E-005   1.36607588652698E-006        7.13942442875376 
     0.0400200100050025                    0.15                       0        1.11716362522387                       0                       0                       0                       0                       0       -4143.22750462145       -3548.26312130675   1.83862481761302E-005     0.00635044703916042         299.29109806368        301386.278373562     0.00142923489348332                    1007      0.0277292350350901   2.49999993684469E-005   1.27736988175136E-006        7.03351996719032 
     0.0440220110055027                    0.15                       0        1.11708869022867                       0                       0                       0                       0                       0       -4144.87602932326       -3571.27243309155   1.83869563308168E-005     0.00621887307177079        299.306053463133        301401.317862056     0.00137193005289994                    1007      0.0276719302995659   2.49999993684469E-005   1.22615402204004E-006        6.96786245863219 
      0.048024012006003                    0.15                       0        1.11701428329664                       0                       0                       0                       0                       0       -4146.52424967367       -3594.06908361407   1.83876578228518E-005     0.00608843000975622        299.320867693979        301416.216076788      0.0013151212111805                    1007      0.0276151215624979   2.49999993684469E-005   1.17538145796293E-006        6.90268084309946 
     0.0520260130065033                    0.15                       0        1.11693987636461                       0                       0                       0                       0                       0       -4148.17247002407        -3616.8657341366   1.83883593148869E-005     0.00595798694774165        299.335681924825        301431.114291521     0.00125831236946105                    1007        0.02755831282543   2.49999993684469E-005   1.12460889388582E-006        6.83749922756674 
     0.0560280140070035                    0.15                       0        1.11687954018389                       0                       0                       0                       0                       0       -4149.60006248241       -3634.96723068566   1.83889149510882E-005     0.00585269589879069        299.347406079138        301442.909235868     0.00121283553377178                    1007      0.0275128359126934   2.49999993684469E-005   1.08396426079882E-006         6.7835188603747 
     0.0600300150075038                    0.15                       0        1.11682674448272                       0                       0                       0                       0                       0        -4150.9094210191       -3650.55260625919   1.83893924235224E-005     0.00576088374914818        299.357474269361        301453.041145573     0.00117343149105764                    1007      0.0274734316955601   2.49999993684469E-005   1.04874715996037E-006         6.7355412134473 
      0.064032016008004                    0.15                       0        1.11677394878155                       0                       0                       0                       0                       0       -4152.21877955579       -3666.13798183271   1.83898698959565E-005     0.00566907159950567        299.367542459584        301463.173055278     0.00113402744834351                    1007      0.0274340274784269   2.49999993684469E-005   1.01353005912192E-006        6.68756356651989 
     0.0680340170085043                    0.15                       0        1.11672518914076                       0                       0                       0                       0                       0       -4153.44267837043        -3680.4724355586   1.83903087064487E-005     0.00558407384908761        299.376798415077        301472.484992496     0.00109776024262431                    1007      0.0273977601420826   2.49999993684469E-005   9.81116478317794E-007        6.64274202912613 
     0.0720360180090045                    0.15                       0        1.11668525301498                       0                       0                       0                       0                       0       -4154.47974768634       -3692.07216120267   1.83906629953553E-005     0.00551397353527194        299.384278687195         301480.00433029     0.00106835069650576                    1007      0.0273683505610802   2.49999993684469E-005    9.5483186950359E-007        6.60482028438306 
     0.0760380190095048                    0.15                       0        1.11664531688919                       0                       0                       0                       0                       0       -4155.51681700225       -3703.67188684675   1.83910172842619E-005     0.00544387322145627        299.391758959314        301487.523668084     0.00103894115038721                    1007      0.0273389409800778   2.49999993684469E-005   9.28547260689385E-007           6.56689853964 
      0.080040020010005                    0.15                       0        1.11660538076341                       0                       0                       0                       0                       0       -4156.55388631816       -3715.27161249082   1.83913715731685E-005      0.0053737729076406        299.399239231432        301495.043005878     0.00100953160426866                    1007      0.0273095313990754   2.49999993684469E-005    9.0226265187518E-007        6.52897679489693 
     0.0840420210105053                    0.15                       0        1.11657343356832                       0                       0                       0                       0                       0       -4157.41262428089       -3724.42542645835   1.83916502725554E-005     0.00531733365987556        299.405111949285        301500.961934092    0.000986394531850847                    1007       0.027286394240671   2.49999993684469E-005   8.81584027332069E-007         6.4976006706337 
     0.0880440220110055                    0.15                       0        1.11654167756133                       0                       0                       0                       0                       0       -4158.26709448474       -3733.52070578747   1.83919271629624E-005     0.00526122134360575        299.410946195754        301506.842561906    0.000963407569914763                    1007      0.0272634071915253   2.49999993684469E-005   8.61039563096299E-007         6.4663811936982 
     0.0920460230115058                    0.15                       0        1.11650992155433                       0                       0                       0                       0                       0       -4159.12156468859       -3742.61598511658   1.83922040533694E-005     0.00520510902733594        299.416780442223         301512.72318972     0.00094042060797868                    1007      0.0272404201423797   2.49999993684469E-005    8.4049509886053E-007        6.43516171676269 
      0.096048024012006                    0.15                       0        1.11648177426717                       0                       0                       0                       0                       0       -4159.89501830994       -3750.62422959527   1.83924474867467E-005     0.00515520544359278        299.421913043924         301517.89132066    0.000920256605229035                    1007       0.027220256331229   2.49999993684469E-005   8.22473645353786E-007        6.40700362192624 
      0.100050025012506                    0.15                       0        1.11645566218492                       0                       0                       0                       0                       0       -4160.62278111712       -3758.01942047684   1.83926720514075E-005     0.00510880339046518         299.42664993996        301522.657625688    0.000901684663012732                    1007       0.027201684737851   2.49999993684469E-005   8.05875090848267E-007        6.38057205067568 
      0.104052026013007                    0.15                       0        1.11642955010268                       0                       0                       0                       0                       0       -4161.35054392431       -3765.41461135841   1.83928966160683E-005     0.00506240133733757        299.431386835996        301527.423930715    0.000883112720796429                    1007      0.0271831131444731   2.49999993684469E-005   7.89276536342748E-007        6.35414047942512 
      0.108054027013507                    0.15                       0        1.11640465772408                       0                       0                       0                       0                       0       -4162.05009975691       -3772.44136521386   1.83931098163676E-005     0.00501814316804444        299.435883331681        301531.946895323    0.000865503485595714                    1007      0.0271655040578344   2.49999993684469E-005    7.7353839473496E-007        6.32879239359517 
      0.112056028014007                    0.15                       0        1.11638258211967                       0                       0                       0                       0                       0       -4162.68451462059       -3778.61725345094   1.83932967718983E-005      0.0049788360674961        299.439824648652        301535.907891446    0.000850117518530441                    1007      0.0271501177768146   2.49999993684469E-005   7.59787284018063E-007        6.30594650061504 
      0.116058029014507                    0.15                       0        1.11636050651525                       0                       0                       0                       0                       0       -4163.31892948427       -3784.79314168803    1.8393483727429E-005     0.00493952896694777        299.443765965624        301539.868887569    0.000834731551465169                    1007      0.0271347314957949   2.49999993684469E-005   7.46036173301166E-007         6.2831006076349 
      0.120060030015007                    0.15                       0        1.11633843091084                       0                       0                       0                       0                       0       -4163.95334434795       -3790.96902992512   1.83936706829597E-005     0.00490022186639944        299.447707282596        301543.829883692    0.000819345584399897                    1007      0.0271193452147751   2.49999993684469E-005    7.3228506258427E-007        6.26025471465477 
      0.124062031015508                    0.15                       0        1.11631931961626                       0                       0                       0                       0                       0        -4164.5190026654       -3796.26611914356    1.8393829763092E-005     0.00486611281025441        299.451066216091         301547.21259067    0.000806261885408295                    1007      0.0271062618750462   2.49999993684469E-005   7.20591586891108E-007        6.24009255613907 
      0.128064032016008                    0.15                       0        1.11630031602152                       0                       0                       0                       0                       0       -4165.08216290763       -3801.53127967792   1.83939878304503E-005     0.00483219261039394        299.454403990325        301550.574287144    0.000793261832834594                    1007      0.0270932622061946   2.49999993684469E-005   7.08972869563861E-007        6.22002790354681 
      0.132066033016508                    0.15                       0        1.11628131242679                       0                       0                       0                       0                       0       -4165.64532314986       -3806.79644021229   1.83941458978087E-005     0.00479827241053346        299.457741764559        301553.935983617    0.000780261780260893                    1007      0.0270802625373431   2.49999993684469E-005   6.97354152236614E-007        6.19996325095455 
      0.136068034017009                    0.15                       0        1.11626378872086                       0                       0                       0                       0                       0       -4166.17376681505       -3811.62116861653   1.83942906216649E-005     0.00476699684624965        299.460792530054        301557.009661081    0.000768416587946115                    1007      0.0270684172798613   2.49999993684469E-005   6.86767578315739E-007        6.18129023198428 
      0.140070035017509                    0.15                       0        1.11624714271494                       0                       0                       0                       0                       0       -4166.68162059545       -3816.18468328402   1.83944274316888E-005     0.00473728977593819        299.463673074941        301559.912518759    0.000757256326050857                    1007      0.0270572566865697   2.49999993684469E-005   6.76793153276835E-007        6.16344257018875 
      0.144072036018009                    0.15                       0        1.11623049670902                       0                       0                       0                       0                       0       -4167.18947437586       -3820.74819795151   1.83945642417128E-005     0.00470758270562672        299.466553619827        301562.815376438    0.000746096064155599                    1007       0.027046096093278   2.49999993684469E-005    6.6681872823793E-007        6.14559490839322 
      0.148074037018509                    0.15                       0        1.11621439027572                       0                       0                       0                       0                       0       -4167.68457764038        -3825.1507798577   1.83946959851369E-005     0.00467885592104443        299.469327910415        301565.612149825    0.000735357779091231                    1007      0.0270353575274833   2.49999993684469E-005    6.5722144327374E-007        6.12827191870471 
      0.152076038019009                    0.15                       0        1.11619960176402                       0                       0                       0                       0                       0       -4168.14853740347        -3829.1602788699   1.83948153532454E-005     0.00465252351252481        299.471842671824         301568.14980928    0.000725650184562085                    1007      0.0270256497759769   2.49999993684469E-005   6.48545333779398E-007        6.11223045571438 
       0.15607803901951                    0.15                       0        1.11618481325233                       0                       0                       0                       0                       0       -4168.61249716655       -3833.16977788211    1.8394934721354E-005     0.00462619110400518        299.474357433233        301570.687468734    0.000715942590032938                    1007      0.0270159420244705   2.49999993684469E-005   6.39869224285057E-007        6.09618899272406 
       0.16008004002001                    0.15                       0        1.11617002474063                       0                       0                       0                       0                       0       -4169.07645692964       -3837.17927689431   1.83950540894625E-005     0.00459985869548555        299.476872194642        301573.225128189    0.000706234995503792                    1007      0.0270062342729641   2.49999993684469E-005   6.31193114790715E-007        6.08014752973373 
       0.16408204102051                    0.15                       0         1.1161566663826                       0                       0                       0                       0                       0       -4169.50666397652       -3840.76310115507   1.83951604680394E-005     0.00457615355586912        299.479116725111        301575.477144822    0.000697642447309976                    1007      0.0269976417008059   2.49999993684469E-005   6.23513594637134E-007        6.06553376871923 
      0.168084042021011                    0.15                       0         1.1161433781547                       0                       0                       0                       0                       0       -4169.93521589897       -3844.32605169772   1.83952662096515E-005     0.00455257724905354        299.481348004324        301577.715154452    0.000689104577395301                    1007      0.0269891038134493   2.49999993684469E-005   6.15882944013398E-007        6.05099001760898 
      0.172086043021511                    0.15                       0         1.1161300899268                       0                       0                       0                       0                       0       -4170.36376782141       -3847.88900224038   1.83953719512636E-005     0.00452900094223796        299.483579283538        301579.953164082    0.000680566707480627                    1007      0.0269805659260927   2.49999993684469E-005   6.08252293389662E-007        6.03644626649873 
      0.176088044022011                    0.15                       0        1.11611757187798                       0                       0                       0                       0                       0       -4170.77447341835       -3851.22644012436   1.83954703059043E-005     0.00450683399436696        299.485652830077        301582.041192471    0.000672618817517524                    1007      0.0269726180509217   2.49999993684469E-005   6.01148919333506E-007        6.02267920797977 
      0.180090045022511                    0.15                       0        1.11610553388658                       0                       0                       0                       0                       0       -4171.17405528936       -3854.42331456255   1.83955640561996E-005     0.00448554550871074        299.487628060857        301584.035736618    0.000665038665735618                    1007      0.0269650379340237   2.49999993684469E-005   5.94374200048471E-007        6.00939626679413 
      0.184092046023012                    0.15                       0        1.11609349589517                       0                       0                       0                       0                       0       -4171.57363716038       -3857.62018900075   1.83956578064948E-005     0.00446425702305452        299.489603291636        301586.030280765    0.000657458513953713                    1007      0.0269574578171256   2.49999993684469E-005   5.87599480763436E-007         5.9961133256085 
      0.188094047023512                    0.15                       0        1.11608174671347                       0                       0                       0                       0                       0        -4171.9665699549       -3860.73215514007    1.8395748973443E-005      0.0044435055429333        299.491524983073        301587.970000625    0.000650100104532681                    1007      0.0269500994425884   2.49999993684469E-005   5.81022943143576E-007        5.98313002946557 
      0.192096048024012                    0.15                       0         1.1160707446323                       0                       0                       0                       0                       0       -4172.34230274317       -3863.62447825475   1.83958334577207E-005     0.00442414320287867        299.493308177526        301589.767899575    0.000643315304093074                    1007      0.0269433146770326   2.49999993684469E-005   5.74959067076746E-007        5.97092186301395 
      0.196098049024512                    0.15                       0        1.11605974255114                       0                       0                       0                       0                       0       -4172.71803553144       -3866.51680136943   1.83959179419984E-005     0.00440478086282405         299.49509137198        301591.565798524    0.000636530503653467                    1007      0.0269365299114768   2.49999993684469E-005   5.68895191009916E-007        5.95871369656233 
      0.200100050025012                    0.15                       0        1.11604874046997                       0                       0                       0                       0                       0       -4173.09376831971       -3869.40912448412   1.83960024262762E-005     0.00438541852276942        299.496874566434        301593.363697474     0.00062974570321386                    1007      0.0269297451459211   2.49999993684469E-005   5.62831314943085E-007        5.94650553011071 
      0.204102051025513                    0.15                       0        1.11603854560089                       0                       0                       0                       0                       0       -4173.45062741332       -3872.05987808357   1.83960792123796E-005     0.00436760110570013        299.498494165906        301594.994075163    0.000623590584689208                    1007      0.0269235899637436   2.49999993684469E-005   5.57330207490689E-007        5.93516969084441 
      0.208104052026013                    0.15                       0        1.11602840082475                       0                       0                       0                       0                       0       -4173.80631526701       -3874.69564066701   1.83961555207595E-005     0.00434987956151113        299.500103613208        301596.614057028    0.000617474542169917                    1007      0.0269174738514566   2.49999993684469E-005   5.51864023622522E-007        5.92388798535735 
      0.212106053026513                    0.15                       0        1.11601825604861                       0                       0                       0                       0                       0        -4174.1620031207       -3877.33140325045   1.83962318291394E-005     0.00433215801732213         299.50171306051        301598.234038894    0.000611358499650626                    1007      0.0269113577391697   2.49999993684469E-005   5.46397839754355E-007        5.91260627987028 
      0.216108054027014                    0.15                       0        1.11600854302598                       0                       0                       0                       0                       0       -4174.50752231585       -3879.83506169589   1.83963041846979E-005     0.00431529019822764        299.503234084694        301599.763475488    0.000605585962581006                    1007      0.0269055853431496   2.49999993684469E-005   5.41238668641687E-007        5.90181193773958 
      0.220110055027514                    0.15                       0        1.11599911267069                       0                       0                       0                       0                       0       -4174.84638412957       -3882.25223207307   1.83963739523595E-005     0.00429898130965082        299.504697218604        301601.233632441    0.000600038317200812                    1007        0.02690003797684   2.49999993684469E-005   5.36280497592703E-007        5.89133667051345 
      0.224112056028014                    0.15                       0        1.11598968231541                       0                       0                       0                       0                       0       -4175.18524594328       -3884.66940245025   1.83964437200211E-005     0.00428267242107401        299.506160352515        301602.703789395    0.000594490671820618                    1007      0.0268944906105305   2.49999993684469E-005   5.31322326543719E-007        5.88086140328732 
      0.228114057028514                    0.15                       0        1.11598043324889                       0                       0                       0                       0                       0       -4175.52023863494       -3887.03641102778   1.83965117405793E-005     0.00426669129840899        299.507591732268         301604.14143009    0.000589073299786254                    1007      0.0268890733964342   2.49999993684469E-005   5.26480588105606E-007        5.87057509620289 