VARIABLES = "X"
 "Y"
 "Z"
 "RHO"
 "U"
 "V"
 "W"
 "VelocityMagnitude"
 "Mach"
 "P"
 "P_tot"
 "Vislam"
 "SkinFrictionCoefficient"
 "T"
 "H0"
 "COND_TURB"
 "CP"
 "COND_eff"
 "D"
 "K"
 "VIS_T"
 "YPLUS"
ZONE
DT=(DOUBLE,DOUBLE,DOUBLE,DOUBLE,DOUBLE,DOUBLE,DOUBLE,DOUBLE,DOUBLE,DOUBLE,DOUBLE,DOUBLE,DOUBLE,DOUBLE,DOUBLE,DOUBLE,DOUBLE,DOUBLE,DOUBLE,DOUBLE,DOUBLE,DOUBLE)
                      0                    0.15                       0        1.11566162109375                       0                       0                       0                       0                       0       -4362.97119140625                       0    1.8372766135144E-005     0.00994710344821215        297.628082275391            301600.09375     0.00501327589154243                    1007      0.0313132777810097             2066014.625                       0    4.4805842662754E-006        9.10018348693848 
    0.00400200100050025                    0.15                       0        1.11532459305548                       0                       0                       0                       0                       0       -4374.86837217437       -1072.94550571184   1.83752919425181E-005     0.00967387961090476        298.097053272119        301503.906156203     0.00547546125424764                    1007      0.0317754623065029        3288354.69334668                       0   4.89365964980941E-006        8.96526939502771 
     0.0080040020010005                    0.15                       0        1.11498756501721                       0                       0                       0                       0                       0       -4386.76555294249       -2145.89101142369   1.83778177498921E-005     0.00940065577359737        298.566024268848        301407.718562406     0.00593764661695285                    1007      0.0322376468319962        4510694.76169336                       0   5.30673503334342E-006        8.83035530311695 
     0.0120060030015008                    0.15                       0        1.11465053697894                       0                       0                       0                       0                       0       -4398.66273371061       -3218.83651713553   1.83803435572662E-005     0.00912743193628998        299.034995265577        301311.530968609     0.00639983197965806                    1007      0.0326998313574895        5733034.83004003                       0   5.71981041687743E-006        8.69544121120619 
      0.016008004002001                    0.15                       0        1.11427996163371                       0                       0                       0                       0                       0       -4411.52207378103       -3650.88710065482   1.83831547521573E-005     0.00877539932018722        299.232783185416        301320.675478364     0.00686703567738352                    1007      0.0331670349578431        6553296.34192097                       0   6.13737071942978E-006        8.51937515631862 
     0.0200100050025013                    0.15                       0        1.11389231687787                       0                       0                       0                       0                       0       -4424.87097601535       -3756.84001595525   1.83861111568178E-005     0.00838326752696441        299.292588784016        301383.414660455     0.00733679278486741                    1007      0.0336367923443976        7168973.80240121                       0   6.55721302107963E-006        8.32237031926149 
     0.0240120060030015                    0.15                       0        1.11350467212204                       0                       0                       0                       0                       0       -4438.21987824967       -3862.79293125567   1.83890675614784E-005      0.0079911357337416        299.352394382616        301446.153842546      0.0078065498923513                    1007      0.0341065497309521        7784651.26288146                       0   6.97705532272948E-006        8.12536548220437 
     0.0280140070035018                    0.15                       0        1.11321855772132                       0                       0                       0                       0                       0       -4448.05592908759       -3942.51503828086   1.83912526336462E-005     0.00766751790636327        299.396752575507        301492.523120935     0.00811459411172315                    1007      0.0344145941385452        8187919.63256628                       0   7.25236784559235E-006        7.96119415026536 
      0.032016008004002                    0.15                       0        1.11314279338966                       0                       0                       0                       0                       0       -4450.61407241707       -3967.89229123839   1.83918396631115E-005     0.00748584696206787        299.409106912465        301504.977316783     0.00808760239880135                    1007      0.0343876024256234        8151119.93721861                       0   7.22824431394273E-006        7.86504710585311 
     0.0360180090045022                    0.15                       0        1.11306702905801                       0                       0                       0                       0                       0       -4453.17221574655       -3993.26954419593   1.83924266925767E-005     0.00730417601777246        299.421461249424        301517.431512631     0.00806061068587955                    1007      0.0343606107127016        8114320.24187093                       0   7.20412078229312E-006        7.76890006144086 
     0.0400200100050025                    0.15                       0        1.11299126472635                       0                       0                       0                       0                       0       -4455.73035907602       -4018.64679715346   1.83930137220419E-005     0.00712250507347706        299.433815586382        301529.885708479     0.00803361897295776                    1007      0.0343336189997799        8077520.54652326                       0    7.1799972506435E-006        7.67275301702861 
     0.0440220110055028                    0.15                       0        1.11294769727927                       0                       0                       0                       0                       0       -4457.72093346478       -4031.64128646355   1.83932732278603E-005     0.00701608692760346        299.439292216909        301535.398933842     0.00796716004002535                    1007      0.0342671600668474        7983439.59454727                       0   7.12060001479267E-006        7.61445750565216 
      0.048024012006003                    0.15                       0         1.1129045105386                       0                       0                       0                       0                       0       -4459.70479673431       -4044.48935796023   1.83935288609329E-005      0.0069105585952247        299.444687523205        301540.830086918     0.00790023443388336                    1007      0.0342002344607055         7888681.3304152                       0   7.06078569122325E-006         7.5566095630785 
     0.0520260130065033                    0.15                       0        1.11286132379792                       0                       0                       0                       0                       0       -4461.68866000383       -4057.33742945692   1.83937844940055E-005     0.00680503026284594        299.450082829501        301546.261239995     0.00783330882774137                    1007      0.0341333088545635        7793923.06628314                       0   7.00097136765383E-006        7.49876162050484 
     0.0560280140070035                    0.15                       0        1.11282546315091                       0                       0                       0                       0                       0       -4463.38968898512         -4067.556066119   1.83939893791847E-005     0.00671899311893012        299.454406432953        301550.607162957      0.0077711132034965                    1007      0.0340711132303186         7706475.3024012                       0   6.94538437909804E-006        7.45097354413748 
     0.0600300150075038                    0.15                       0         1.1127935285387                       0                       0                       0                       0                       0       -4464.93914779655       -4076.36559539535   1.83941670686978E-005     0.00664340125293419        299.458155713599        301554.371513882     0.00771145236442213                    1007      0.0340114523912442        7622945.21685842                       0   6.89206280853675E-006        7.40857652427555 
      0.064032016008004                    0.15                       0        1.11276159392648                       0                       0                       0                       0                       0       -4466.48860660799       -4085.17512467171    1.8394344758211E-005     0.00656780938693825        299.461904994245        301558.135864807     0.00765179152534776                    1007      0.0339517915521698        7539415.13131565                       0   6.83874123797545E-006        7.36617950441361 
     0.0680340170085043                    0.15                       0         1.1127317670347                       0                       0                       0                       0                       0       -4467.93194106819       -4093.33504984914   1.83945111570685E-005     0.00649728020163939        299.465416057638        301561.665098174     0.00759505783731845                    1007      0.0338950579079346        7460238.90570285                       0   6.78803580640255E-006        7.32643901949945 
     0.0720360180090045                    0.15                       0        1.11270654797852                       0                       0                       0                       0                       0       -4469.14326963286       -4100.07482989542   1.83946528726312E-005     0.00643781889807721        299.468406337568        301564.680324537     0.00754472339971213                    1007      0.0338447236098636        7390580.95897948                       0   6.74304969995854E-006        7.29250617215727 
     0.0760380190095048                    0.15                       0        1.11268132892235                       0                       0                       0                       0                       0       -4470.35459819754       -4106.81460994169   1.83947945881938E-005     0.00637835759451503        299.471396617498          301567.6955509     0.00749438896210582                    1007      0.0337943893117926        7320923.01225612                       0   6.69806359351453E-006         7.2585733248151 
      0.080040020010005                    0.15                       0        1.11265610986617                       0                       0                       0                       0                       0       -4471.56592676221       -4113.55438998796   1.83949363037564E-005     0.00631889629095285        299.474386897428        301570.710777264      0.0074440545244995                    1007      0.0337440550137216        7251265.06553276                       0   6.65307748707051E-006        7.22464047747293 
     0.0840420210105053                    0.15                       0        1.11263521669387                       0                       0                       0                       0                       0       -4472.55905662792       -4119.03499063985    1.8395055129535E-005     0.00626968061658607        299.476894911079        301573.241308154     0.00740113135184039                    1007      0.0337011318443238        7192457.12756378                       0   6.61471517844489E-006        7.19616284878508 
     0.0880440220110055                    0.15                       0        1.11261442704699                       0                       0                       0                       0                       0       -4473.54696464443       -4124.48545708401   1.83951734075238E-005     0.00622071013676413        299.479391383314        301575.760239495     0.00735838554278687                    1007      0.0336583860352702        7133908.84792396                       0   6.57651138805766E-006        7.16781577233853 
     0.0920460230115058                    0.15                       0        1.11259363740012                       0                       0                       0                       0                       0       -4474.53487266094       -4129.93592352817   1.83952916855126E-005     0.00617173965694219        299.481887855549        301578.279170835     0.00731563973373334                    1007      0.0336156402262167        7075360.56828414                       0   6.53830759767043E-006        7.13946869589198 
      0.096048024012006                    0.15                       0        1.11257488051315                       0                       0                       0                       0                       0       -4475.42136962036        -4134.8144091577   1.83953991596689E-005     0.00612754541346286        299.484156293234        301580.558607429     0.00727668143888043                    1007      0.0335766815744888        7022290.01250625                       0   6.50348889196622E-006        7.11369851948679 
      0.100050025012506                    0.15                       0        1.11255727003908                       0                       0                       0                       0                       0       -4476.25067392095       -4139.37031552886   1.83955005408022E-005     0.00608604481763366        299.486296126579        301582.702976488     0.00723985918336783                    1007      0.0335398587608349        6972308.72136068                       0   6.47057926796313E-006        7.08938163396655 
      0.104052026013007                    0.15                       0          1.112539659565                       0                       0                       0                       0                       0       -4477.07997822153       -4143.92622190001   1.83956019219354E-005     0.00604454422180446        299.488435959923        301584.847345548     0.00720303692785522                    1007       0.033503035947181         6922327.4302151                       0   6.43766964396005E-006         7.0650647484463 
      0.108054027013507                    0.15                       0        1.11252279386573                       0                       0                       0                       0                       0       -4477.87280798602       -4148.28207096713   1.83956993502473E-005     0.00600473762603067        299.490490133372        301586.909657954      0.0071676214129616                    1007      0.0334676200427998         6874359.9112056                       0   6.40601726421197E-006        7.04167285163501 
      0.112056028014007                    0.15                       0        1.11250764814361                       0                       0                       0                       0                       0       -4478.58140373898       -4152.17590924369    1.8395787649944E-005     0.00596884314088209        299.492346484522         301588.78246936     0.00713545461397258                    1007      0.0334354532438108        6831042.98199099                       0   6.37726835462188E-006        7.02041711659357 
      0.116058029014507                    0.15                       0        1.11249250242148                       0                       0                       0                       0                       0       -4479.28999949193       -4156.06974752025   1.83958759496408E-005     0.00593294865573352        299.494202835671        301590.655280765     0.00710328781498357                    1007      0.0334032864448218        6787726.05277639                       0   6.34851944503179E-006        6.99916138155214 
      0.120060030015008                    0.15                       0        1.11247735669936                       0                       0                       0                       0                       0       -4479.99859524489       -4159.96358579681   1.83959642493375E-005     0.00589705417058494         299.49605918682        301592.528092171     0.00707112101599455                    1007      0.0333711196458328        6744409.12356179                       0    6.3197705354417E-006         6.9779056465107 
      0.124062031015508                    0.15                       0        1.11246407228807                       0                       0                       0                       0                       0       -4480.61556266414       -4163.36525709144   1.83960420300159E-005     0.00586536877381878        299.497694938167        301594.184045148     0.00704254206058464                    1007      0.0333425408250663        6706183.74112056                       0   6.29422821708093E-006        6.95897241375815 
      0.128064032016008                    0.15                       0        1.11245085550225                       0                       0                       0                       0                       0       -4481.22920102629       -4166.74904688672   1.83961194285155E-005     0.00583383630240908        299.499322674643        301595.832119185      0.0070140934593532                    1007      0.0333140923633702        6668143.34567284                       0   6.26880240116967E-006        6.94012356257666 
      0.132066033016508                    0.15                       0        1.11243763871644                       0                       0                       0                       0                       0       -4481.84283938844       -4170.13283668201   1.83961968270151E-005     0.00580230383099937        299.500950411119        301597.480193222     0.00698564485812177                    1007      0.0332856439016741        6630102.95022512                       0   6.24337658525841E-006        6.92127471139516 
      0.136068034017009                    0.15                       0        1.11242540852316                       0                       0                       0                       0                       0       -4482.40862765367       -4173.26295667365   1.83962687512575E-005     0.00577295896037668        299.502469084274        301599.010708479     0.00695909262719141                    1007      0.0332590915475147        6594732.73786894                       0   6.21964573624958E-006        6.90364439169009 
      0.140070035017509                    0.15                       0        1.11241376346323                       0                       0                       0                       0                       0       -4482.94603673907        -4176.2426288828   1.83963374287994E-005     0.00574491152319948        299.503923073597        301600.471501376      0.0069336651052428                    1007      0.0332336637464954        6560946.17133567                       0   6.19692014686638E-006        6.88673676485536 
      0.144072036018009                    0.15                       0        1.11240211840329                       0                       0                       0                       0                       0       -4483.48344582448       -4179.22230109195   1.83964061063412E-005     0.00571686408602227        299.505377062921        301601.932294272     0.00690823758329419                    1007      0.0332082359454762         6527159.6048024                       0   6.17419455748318E-006        6.86982913802063 
      0.148074037018509                    0.15                       0        1.11239084689363                       0                       0                       0                       0                       0       -4484.00279167904       -4182.10689695434    1.8396472725577E-005     0.00568964250461236        299.506788550525        301603.349565408      0.0068835343824529                    1007      0.0331835325466298        6494386.00725363                       0   6.15211626580717E-006        6.85338546062124 
       0.15207603801901                    0.15                       0        1.11238048779124                       0                       0                       0                       0                       0       -4484.47801757324       -4184.75926610766   1.83965343173407E-005     0.00566443809964557        299.508096226458        301604.660533392     0.00686060035673006                    1007       0.033160598520907        6464086.61555778                       0   6.13161901738145E-006        6.83807499304958 
       0.15607803901951                    0.15                       0        1.11237012868884                       0                       0                       0                       0                       0       -4484.95324346744       -4187.41163526099   1.83965959091045E-005     0.00563923369467877        299.509403902391        301605.971501376     0.00683766633100722                    1007      0.0331376644951842        6433787.22386193                       0   6.11112176895573E-006        6.82276452547792 
       0.16008004002001                    0.15                       0        1.11235976958645                       0                       0                       0                       0                       0       -4485.42846936163       -4190.06400441432   1.83966575008682E-005     0.00561402928971198        299.510711578323         301607.28246936     0.00681473230528438                    1007      0.0331147304694613        6403487.83216608                       0   6.09062452053001E-006        6.80745405790626 
       0.16408204102051                    0.15                       0        1.11235039797111                       0                       0                       0                       0                       0        -4485.8541819738       -4192.45904397511   1.83967138968194E-005     0.00559107492933643        299.511888497349        301608.468468609     0.00679378855014672                    1007      0.0330937873793877        6375954.74837419                       0   6.07190631835683E-006        6.79341751673986 
      0.168084042021011                    0.15                       0        1.11234107477895                       0                       0                       0                       0                       0       -4486.27746661417       -4194.84146492191   1.83967700379846E-005     0.00556823090389707        299.513059004478        301609.648339795     0.00677294239146507                    1007      0.0330729419183826         6348557.3154077                       0   6.05327535487905E-006        6.77944344481926 
      0.172086043021511                    0.15                       0         1.1123317515868                       0                       0                       0                       0                       0       -4486.70075125453       -4197.22388586872   1.83968261791498E-005     0.00554538687845769        299.514229511606         301610.82821098     0.00675209623278343                    1007      0.0330520964573776        6321159.88244122                       0   6.03464439140127E-006        6.76546937289865 
      0.176088044022011                    0.15                       0        1.11232300052767                       0                       0                       0                       0                       0       -4487.09717627368       -4199.46624020018   1.83968789626006E-005     0.00552377582720111        299.515343685637        301611.950397074     0.00673234001502745                    1007      0.0330323402496384        6295268.63031516                       0   6.01698741690101E-006        6.75219867252123 
      0.180090045022511                    0.15                       0        1.11231460608262                       0                       0                       0                       0                       0       -4487.47685952351       -4201.62129013726   1.83969296531673E-005     0.00550293329643787        299.516422746896        301613.036627689     0.00671326316424411                    1007      0.0330132629802491        6270316.19009505                       0   5.99993753580136E-006        6.73936638801082 
      0.184092046023012                    0.15                       0        1.11230621163758                       0                       0                       0                       0                       0       -4487.85654277334       -4203.77634007433   1.83969803437339E-005     0.00548209076567463        299.517501808155        301614.122858304     0.00669418631346077                    1007      0.0329941857108597        6245363.74987494                       0   5.98288765470171E-006        6.72653410350042 
      0.188094047023512                    0.15                       0        1.11229808608432                       0                       0                       0                       0                       0       -4488.22541617488       -4205.86086085035    1.8397029362723E-005      0.0054617310108234        299.518540077534        301615.167318034      0.0066747627665511                    1007      0.0329747620565615        6219987.83641821                       0   5.96552792390783E-006        6.71397995268959 
      0.192096048024012                    0.15                       0        1.11229065610743                       0                       0                       0                       0                       0       -4488.56632637608       -4207.76293493426   1.83970740576312E-005      0.0054426201134212        299.519472825402        301616.103723737     0.00665444237696731                    1007      0.0329544423646543        6193516.47123562                       0   5.94736666576121E-006        6.70214528546088 
      0.196098049024512                    0.15                       0        1.11228322613054                       0                       0                       0                       0                       0       -4488.90723657727       -4209.66500901818   1.83971187525394E-005     0.00542350921601899         299.52040557327         301617.04012944     0.00663412198738352                    1007      0.0329341226727471        6167045.10605303                       0   5.92920540761458E-006        6.69031061823217 
      0.200100050025012                    0.15                       0        1.11227579615365                       0                       0                       0                       0                       0       -4489.24814677847        -4211.5670831021   1.83971634474476E-005     0.00540439831861679        299.521338321138        301617.976535143     0.00661380159779973                    1007      0.0329138029808399        6140573.74087043                       0   5.91104414946796E-006        6.67847595100346 
      0.204102051025513                    0.15                       0          1.112269139755                       0                       0                       0                       0                       0       -4489.55682015813       -4213.25507162761   1.83972019838164E-005     0.00538674326708588        299.522159135598        301618.807137944     0.00659222769089278                    1007      0.0328922283264057        6112573.31215608                       0     5.891762678663E-006        6.66748778017358 
      0.208104052026013                    0.15                       0         1.1122625313621                       0                       0                       0                       0                       0       -4489.86349302581        -4214.9297747018   1.83972401380064E-005     0.00536917856060017        299.522973003836        301619.631174963     0.00657057599479024                    1007      0.0328705757930912        6084477.99474737                       0   5.87241169111506E-006         6.6565521401486 
      0.212106053026513                    0.15                       0        1.11225592296919                       0                       0                       0                       0                       0       -4490.17016589349         -4216.604477776   1.83972782921963E-005     0.00535161385411446        299.523786872074        301620.455211981      0.0065489242986877                    1007      0.0328489232597767        6056382.67733867                       0   5.85306070356712E-006        6.64561650012361 
      0.216108054027014                    0.15                       0        1.11224968156676                       0                       0                       0                       0                       0        -4490.4595962532       -4218.19394096462   1.83973147993774E-005     0.00533485936006534        299.524562055198        301621.233976363     0.00652814268708982                    1007      0.0328281416542355        6029497.95022511                       0   5.83448726892779E-006        6.63515363018652 
      0.220110055027514                    0.15                       0        1.11224368043158                       0                       0                       0                       0                       0       -4490.73773800963       -4219.72759792982    1.8397350228268E-005     0.00531863530896503        299.525311911327        301621.983100925     0.00650793071645216                    1007      0.0328079302417391        6003405.79189595                       0   5.81642289517063E-006        6.62500028099758 