VARIABLES = "X"
 "Y"
 "Z"
 "RHO"
 "U"
 "V"
 "W"
 "VelocityMagnitude"
 "Mach"
 "P"
 "P_tot"
 "Vislam"
 "SkinFrictionCoefficient"
 "T"
 "H0"
 "COND_TURB"
 "CP"
 "COND_eff"
 "Ywall"
 "VIS_T"
 "YPLUS"
ZONE
DT=(DOUBLE,DOUBLE,DOUBLE,DOUBLE,DOUBLE,DOUBLE,DOUBLE,DOUBLE,DOUBLE,DOUBLE,DOUBLE,DOUBLE,DOUBLE,DOUBLE,DOUBLE,DOUBLE,DOUBLE,DOUBLE,DOUBLE,DOUBLE,DOUBLE)
                      0                    0.15                       0        1.11704313755035                       0                       0                       0                       0                       0        -4387.2412109375                       0    1.8351607650402E-005      0.0134637420997024          297.3916015625               301375.75     0.00769694987684488                    1007      0.0339969508349895   2.49999993684469E-005   6.87910096530686E-006        9.05096817016602 
    0.00400200100050025                    0.15                       0        1.11665324236883                       0                       0                       0                       0                       0       -4397.13067935335       -943.893071169377   1.83550976686618E-005      0.0126735797970033        297.809308004832        301232.742121061     0.00688475383032838                    1007       0.033184754788473   2.49999993684469E-005   6.15320578290557E-006         8.8673694404499 
     0.0080040020010005                    0.15                       0         1.1162633471873                       0                       0                       0                       0                       0        -4407.0201477692       -1887.78614233875   1.83585876869217E-005      0.0118834174943043        298.227014447165        301089.734242121     0.00607255778381188                    1007      0.0323725587419565   2.49999993684469E-005   5.42731060050428E-006        8.68377071073378 
     0.0120060030015008                    0.15                       0        1.11587345200577                       0                       0                       0                       0                       0       -4416.90961618505       -2831.67921350813   1.83620777051815E-005      0.0110932551916053        298.644720889497        300946.726363182     0.00526036173729537                    1007        0.03156036269544   2.49999993684469E-005   4.70141541810298E-006        8.50017198101767 
      0.016008004002001                    0.15                       0        1.11542827597614                       0                       0                       0                       0                       0       -4427.36317255307       -3247.65001165134   1.83661883509784E-005      0.0101962698818748        298.851482244418        300960.723643072      0.0043995358659492                    1007      0.0306995365928939   2.49999993684469E-005    3.9320577037262E-006        8.27103035541818 
     0.0200100050025013                    0.15                       0        1.11495497215981                       0                       0                       0                       0                       0       -4438.10374596478       -3395.00544669308   1.83706147820714E-005     0.00924493130408282        298.950911338238        301054.607678839     0.00351396635577282                    1007      0.0298139667338792   2.49999993684469E-005   3.14058555242486E-006        8.01871577020047 
     0.0240120060030015                    0.15                       0        1.11448166834348                       0                       0                       0                       0                       0       -4448.84431937649       -3542.36088173482   1.83750412131643E-005     0.00829359272629088        299.050340432057        301148.491714607     0.00262839684559644                    1007      0.0289283968748645   2.49999993684469E-005   2.34911340112351E-006        7.76640118498274 
     0.0280140070035018                    0.15                       0        1.11411956997738                       0                       0                       0                       0                       0       -4456.67914914488       -3656.51403387241   1.83784851579422E-005     0.00757213245882555        299.127103010734        301221.539941846     0.00199469066092911                    1007      0.0282946905571261   2.49999993684469E-005    1.7827424920139E-006        7.56124547864867 
      0.032016008004002                    0.15                       0        1.11398786649279                       0                       0                       0                       0                       0       -4458.49387413433        -3701.8788665573   1.83798935926108E-005     0.00732693289583171        299.156905219578        301251.420647824     0.00188279362244456                    1007       0.028182793832596   2.49999993684469E-005   1.68273518211172E-006        7.45379329574531 
     0.0360180090045022                    0.15                       0         1.1138561630082                       0                       0                       0                       0                       0       -4460.30859912378        -3747.2436992422   1.83813020272795E-005     0.00708173333283787        299.186707428421        301281.301353802        0.00177089658396                    1007       0.028070897108066   2.49999993684469E-005   1.58272787220953E-006        7.34634111284196 
     0.0400200100050025                    0.15                       0        1.11372445952362                       0                       0                       0                       0                       0       -4462.12332411323        -3792.6085319271   1.83827104619481E-005     0.00683653376984403        299.216509637265         301311.18205978     0.00165899954547545                    1007      0.0279590003835359   2.49999993684469E-005   1.48272056230735E-006         7.2388889299386 
     0.0440220110055027                    0.15                       0        1.11364242820635                       0                       0                       0                       0                       0        -4463.8585171492       -3818.06955333135   1.83834983254965E-005     0.00669458896697886        299.233152922897        301327.911940345     0.00159400354845103                    1007      0.0278940039419901   2.49999993684469E-005   1.42463079128916E-006        7.17221268920555 
      0.048024012006003                    0.15                       0         1.1135609842289                       0                       0                       0                       0                       0       -4465.59276977356       -3843.29522561574   1.83842788512107E-005     0.00655386508188549        299.249640613153        301344.486321286     0.00152956212455199                    1007      0.0278295620646013   2.49999993684469E-005   1.36703666684561E-006        7.10601859643735 
     0.0520260130065033                    0.15                       0        1.11347954025145                       0                       0                       0                       0                       0       -4467.32702239792       -3868.52089790012   1.83850593769249E-005     0.00641314119679211         299.26612830341        301361.060702226     0.00146512070065294                    1007      0.0277651201872124   2.49999993684469E-005   1.30944254240206E-006        7.03982450366914 
     0.0560280140070035                    0.15                       0         1.1134136089866                       0                       0                       0                       0                       0       -4468.81930833581       -3888.54471510658    1.8385678432069E-005     0.00629961697884153        299.279192498471        301374.202585668     0.00141339773510682                    1007      0.0277133972224234   2.49999993684469E-005   1.26321545813407E-006        6.98501241606673 
     0.0600300150075038                    0.15                       0        1.11335599094465                       0                       0                       0                       0                       0       -4470.18192494685       -3905.78087151486   1.83862109555486E-005     0.00620066899277005        299.290422051236        301385.505002501     0.00136849055878059                    1007       0.027668490290284   2.49999993684469E-005   1.22307994154991E-006        6.93629991584804 
      0.064032016008004                    0.15                       0        1.11329837290271                       0                       0                       0                       0                       0       -4471.54454155789       -3923.01702792314   1.83867434790282E-005     0.00610172100669856           299.301651604        301396.807419335     0.00132358338245437                    1007      0.0276235833581446   2.49999993684469E-005   1.18294442496574E-006        6.88758741562935 
     0.0680340170085043                    0.15                       0         1.1132451945272                       0                       0                       0                       0                       0       -4472.81334075241       -3938.86757502286    1.8387233234873E-005     0.00601013230552161        299.311979949325        301407.201694597     0.00128221282813038                    1007      0.0275822128837797   2.49999993684469E-005   1.14596974665871E-006        6.84207752932901 
     0.0720360180090045                    0.15                       0        1.11320172201818                       0                       0                       0                       0                       0       -4473.87703910549       -3951.68894432568   1.83876294933885E-005     0.00593463225376835         299.32033810179        301415.610617809     0.00124857393148149                    1007      0.0275485737080601   2.49999993684469E-005   1.11590519884049E-006        6.80356910217995 
     0.0760380190095048                    0.15                       0        1.11315824950916                       0                       0                       0                       0                       0       -4474.94073745857        -3964.5103136285   1.83880257519041E-005     0.00585913220201509        299.328696254255        301424.019541021     0.00121493503483261                    1007      0.0275149345323406   2.49999993684469E-005   1.08584065102227E-006        6.76506067503089 
      0.080040020010005                    0.15                       0        1.11311477700014                       0                       0                       0                       0                       0       -4476.00443581166       -3977.33168293131   1.83884220104196E-005     0.00578363215026183         299.33705440672        301432.428464232     0.00118129613818372                    1007      0.0274812953566211   2.49999993684469E-005   1.05577610320406E-006        6.72655224788183 
     0.0840420210105053                    0.15                       0          1.113080200462                       0                       0                       0                       0                       0       -4476.86951190439       -3987.44050089009   1.83887346946071E-005     0.00572286768555044        299.343644249493         301439.06321911     0.00115475528054694                    1007       0.027454754969421   2.49999993684469E-005   1.03205538585928E-006         6.6946797265954 
     0.0880440220110055                    0.15                       0        1.11304583681888                       0                       0                       0                       0                       0       -4477.72983464388       -3997.48440309022   1.83890453787251E-005     0.00566245586736656        299.350191773743        301445.655515258     0.00112838429051044                    1007      0.0274283844677581   2.49999993684469E-005   1.00848648667968E-006        6.66296601331252 
     0.0920460230115058                    0.15                       0        1.11301147317576                       0                       0                       0                       0                       0       -4478.59015738338       -4007.52830529034   1.83893560628432E-005     0.00560204404918267        299.356739297994        301452.247811406     0.00110201330047395                    1007      0.0274020139660953   2.49999993684469E-005   9.84917587500082E-007        6.63125230002963 
      0.096048024012006                    0.15                       0        1.11298110653246                       0                       0                       0                       0                       0       -4479.35870498726       -4016.36486395053   1.83896291078029E-005     0.00554832194178454         299.36249747188        301458.043787519     0.00107884602177433                    1007      0.0273788467742849   2.49999993684469E-005   9.64211965318784E-007        6.60263998452397 
      0.100050025012506                    0.15                       0        1.11295299407182                       0                       0                       0                       0                       0       -4480.07549429011       -4024.52051868219   1.83898809254565E-005     0.00549837262167028        299.367810476894        301463.390664082     0.00105748553589133                    1007      0.0273574861488666   2.49999993684469E-005   9.45121141653499E-007        6.57577676019291 
      0.104052026013007                    0.15                       0        1.11292488161119                       0                       0                       0                       0                       0       -4480.79228359297       -4032.67617341386   1.83901327431101E-005     0.00544842330155602        299.373123481907        301468.737540645     0.00103612505000834                    1007      0.0273361255234483   2.49999993684469E-005   9.26030317988214E-007        6.54891353586186 
      0.108054027013507                    0.15                       0        1.11289813996793                       0                       0                       0                       0                       0       -4481.47657740003       -4040.42189857136   1.83903720434959E-005     0.00540078150154114        299.378171217567         301473.81844047     0.00101585962741252                    1007      0.0273158599665876   2.49999993684469E-005   9.07918208782859E-007        6.52314722448542 
      0.112056028014007                    0.15                       0        1.11287456407972                       0                       0                       0                       0                       0       -4482.08582636045       -4047.22093554101   1.83905824366005E-005     0.00535846867059553        299.382606342234        301478.285095673    0.000998123135502026                    1007      0.0272981233525837   2.49999993684469E-005   8.92066335181097E-007        6.49991411540197 
      0.116058029014507                    0.15                       0        1.11285098819151                       0                       0                       0                       0                       0       -4482.69507532086       -4054.01997251067    1.8390792829705E-005     0.00531615583964993          299.3870414669        301482.751750875    0.000980386643591531                    1007      0.0272803867385798   2.49999993684469E-005   8.76214461579335E-007        6.47668100631851 
      0.120060030015007                    0.15                       0         1.1128274123033                       0                       0                       0                       0                       0       -4483.30432428128       -4060.81900948032   1.83910032228095E-005     0.00527384300870433        299.391476591567        301487.218406078    0.000962650151681035                    1007      0.0272626501245759   2.49999993684469E-005   8.60362587977574E-007        6.45344789723506 
      0.124062031015508                    0.15                       0        1.11280717988083                       0                       0                       0                       0                       0       -4483.83267488236       -4066.63823037007   1.83911831107611E-005     0.00523711936133707        299.395267564813        301491.034485993    0.000947537523685719                    1007      0.0272475374418089   2.49999993684469E-005   8.46855781573546E-007        6.43293009596267 
      0.128064032016008                    0.15                       0        1.11278706893377                       0                       0                       0                       0                       0        -4484.3580862697        -4072.4218524057    1.8391361890394E-005     0.00520059878119324        299.399035134633         301494.82692909    0.000932520226386283                    1007      0.0272325200921837   2.49999993684469E-005   8.33434176572896E-007        6.41251094774224 
      0.132066033016508                    0.15                       0        1.11276695798671                       0                       0                       0                       0                       0       -4484.88349765703       -4078.20547444132   1.83915406700268E-005     0.00516407820104942        299.402802704453        301498.619372186    0.000917502929086846                    1007      0.0272175027425585   2.49999993684469E-005   8.20012571572247E-007        6.39209179952182 
      0.136068034017009                    0.15                       0        1.11274850630891                       0                       0                       0                       0                       0       -4485.36702872921       -4083.49695685245   1.83917043954522E-005      0.0051303986290385        299.406248824485        301502.094406578    0.000903803997162009                    1007      0.0272038037692564   2.49999993684469E-005   8.07769236294174E-007        6.37307989102355 
      0.140070035017509                    0.15                       0        1.11273103871901                       0                       0                       0                       0                       0       -4485.82572121021       -4088.49655858202   1.83918591924514E-005     0.00509840401663832        299.409504297437        301505.381190595    0.000890886968105619                    1007      0.0271908867053162   2.49999993684469E-005   7.96224715239865E-007         6.3549025954456 
      0.144072036018009                    0.15                       0        1.11271357112911                       0                       0                       0                       0                       0       -4486.28441369122        -4093.4961603116   1.83920139894506E-005     0.00506640940423815        299.412759770388        301508.667974612    0.000877969939049228                    1007       0.027177969641376   2.49999993684469E-005   7.84680194185555E-007        6.33672529986765 
      0.148074037018509                    0.15                       0          1.112696726123                       0                       0                       0                       0                       0       -4486.72725303081       -4098.31544849573    1.8392163086525E-005     0.00503546694221871        299.415901019968        301511.835073787    0.000865535341492534                    1007      0.0271655350798679   2.49999993684469E-005   7.73566843742883E-007        6.31907823814518 
      0.152076038019009                    0.15                       0        1.11268140179566                       0                       0                       0                       0                       0       -4487.13137061695       -4102.69431566369   1.83922982613694E-005     0.00500709438773842        299.418763275681        301514.709839295    0.000854279096736823                    1007      0.0271542790444151   2.49999993684469E-005   7.63506639909094E-007        6.30272628785134 
       0.15607803901951                    0.15                       0        1.11266607746832                       0                       0                       0                       0                       0       -4487.53548820309       -4107.07318283165   1.83924334362137E-005     0.00497872183325814        299.421625531394        301517.584604802    0.000843022851981112                    1007      0.0271430230089624   2.49999993684469E-005   7.53446436075307E-007         6.2863743375575 
       0.16008004002001                    0.15                       0        1.11265075314099                       0                       0                       0                       0                       0       -4487.93960578922       -4111.45204999961   1.83925686110581E-005     0.00495034927877785        299.424487787106         301520.45937031      0.0008317666072254                    1007      0.0271317669735097   2.49999993684469E-005   7.43386232241519E-007        6.27002238726366 
       0.16408204102051                    0.15                       0        1.11263713137754                       0                       0                       0                       0                       0       -4488.30090484696       -4115.35280017939    1.8392689237627E-005     0.00492479446753599        299.427027509116        301523.012787644    0.000821786769962786                    1007      0.0271217867968722   2.49999993684469E-005   7.34466817786539E-007        6.25511271289255 
      0.168084042021011                    0.15                       0        1.11262359310234                       0                       0                       0                       0                       0       -4488.66010422203       -4119.23010504276   1.83928091507954E-005     0.00489937782934259        299.429551415112        301525.550447099    0.000811869523610516                    1007      0.0271118691842397   2.49999993684469E-005   7.25603343966598E-007        6.24027376308508 
      0.172086043021511                    0.15                       0        1.11261005482714                       0                       0                       0                       0                       0       -4489.01930359711       -4123.10740990613   1.83929290639638E-005     0.00487396119114919        299.432075321108        301528.088106553    0.000801952277258246                    1007      0.0271019515716072   2.49999993684469E-005   7.16739870146656E-007        6.22543481327761 
      0.176088044022011                    0.15                       0        1.11259737475149                       0                       0                       0                       0                       0       -4489.35506840334       -4126.73053983046   1.83930409186179E-005     0.00485005491194672        299.434435861119        301530.464247749    0.000792711129514086                    1007      0.0270927102724766   2.49999993684469E-005   7.08480648494776E-007         6.2113798617601 
      0.180090045022511                    0.15                       0        1.11258522959695                       0                       0                       0                       0                       0       -4489.67622629674       -4130.19524093101   1.83931477503497E-005     0.00482709004891745        299.436694574094        301532.739713607    0.000783891398246527                    1007      0.0270838905237671   2.49999993684469E-005    7.0059806098559E-007        6.19781358126344 
      0.184092046023012                    0.15                       0        1.11257308444242                       0                       0                       0                       0                       0       -4489.99738419014       -4133.65994203156   1.83932545820815E-005     0.00480412518588818        299.438953287068        301535.015179465    0.000775071666978967                    1007      0.0270750707750576   2.49999993684469E-005   6.92715473476405E-007        6.18424730076678 
      0.188094047023512                    0.15                       0        1.11256127789236                       0                       0                       0                       0                       0       -4490.30948628611       -4137.02870062961    1.8393358526543E-005     0.00478173529691044         299.44114826273        301537.227988994    0.000766506297540632                    1007      0.0270665054465306   2.49999993684469E-005   6.85060220514826E-007        6.17098337414862 
      0.192096048024012                    0.15                       0        1.11255034725328                       0                       0                       0                       0                       0       -4490.59816260669       -4140.14927263436   1.83934550021376E-005     0.00476083276595822        299.443178361031        301539.278717484    0.000758598917983883                    1007      0.0270585982588349   2.49999993684469E-005    6.7799304255065E-007         6.1585015845096 
      0.196098049024512                    0.15                       0        1.11253941661421                       0                       0                       0                       0                       0       -4490.88683892728       -4143.26984463912   1.83935514777322E-005     0.00473993023500599        299.445208459332        301541.329445973    0.000750691538427133                    1007      0.0270506910711393   2.49999993684469E-005   6.70925864586474E-007        6.14601979487058 
      0.200100050025012                    0.15                       0        1.11252848597513                       0                       0                       0                       0                       0       -4491.17551524786       -4146.39041664387   1.83936479533267E-005     0.00471902770405377        299.447238557633        301543.380174462    0.000742784158870384                    1007      0.0270427838834436   2.49999993684469E-005   6.63858686622299E-007        6.13353800523156 
      0.204102051025513                    0.15                       0        1.11251856435115                       0                       0                       0                       0                       0       -4491.43787860727       -4149.23725119396   1.83937362175354E-005     0.00469977822361617        299.449096450691        301545.245747874    0.000735599660458348                    1007      0.0270355992977055   2.49999993684469E-005   6.57437593971103E-007         6.1219359422219 
      0.208104052026013                    0.15                       0        1.11250870534335                       0                       0                       0                       0                       0       -4491.69860907016       -4152.06709849065   1.83938239721723E-005     0.00468063132610058        299.450943657253        301547.099831166    0.000728460021691817                    1007      0.0270284595542875   2.49999993684469E-005   6.51056595266635E-007        6.11038847217684 
      0.212106053026513                    0.15                       0        1.11249884633555                       0                       0                       0                       0                       0       -4491.95933953305       -4154.89694578735   1.83939117268091E-005     0.00466148442858499        299.452790863816        301548.953914457    0.000721320382925286                    1007      0.0270213198108695   2.49999993684469E-005   6.44675596562167E-007        6.09884100213177 
      0.216108054027014                    0.15                       0        1.11248950543196                       0                       0                       0                       0                       0       -4492.20539175838       -4157.57656220688   1.83939945404192E-005      0.0046432501163097        299.454533067926        301550.711793397    0.000714575393846852                    1007       0.027014575054447   2.49999993684469E-005    6.3864731511058E-007        6.08778452217251 
      0.220110055027514                    0.15                       0        1.11248050372919                       0                       0                       0                       0                       0       -4492.44183419835       -4160.15782305215   1.83940741191583E-005     0.00462561327006189        299.456206527336        301552.406687719    0.000708088780392945                    1007      0.0270080888944829   2.49999993684469E-005   6.32849956280355E-007        6.07704949152356 
      0.224112056028014                    0.15                       0        1.11247150202642                       0                       0                       0                       0                       0       -4492.67827663832       -4162.73908389742   1.83941536978973E-005     0.00460797642381408        299.457879986746        301554.101582041    0.000701602166939039                    1007      0.0270016027345187   2.49999993684469E-005    6.2705259745013E-007        6.06631446087462 
      0.228114057028514                    0.15                       0        1.11246270069544                       0                       0                       0                       0                       0       -4492.90893493622       -4165.26312863463   1.83942315295329E-005      0.0045906897809444        299.459519249371        301555.756456353    0.000695265333822557                    1007      0.0269952661079681   2.49999993684469E-005   6.21389096767084E-007        6.05576976434537 