VARIABLES = "X"
 "Y"
 "Z"
 "RHO"
 "U"
 "V"
 "W"
 "VelocityMagnitude"
 "Mach"
 "P"
 "P_tot"
 "Vislam"
 "SkinFrictionCoefficient"
 "T"
 "H0"
 "COND_TURB"
 "CP"
 "COND_eff"
 "Ywall"
 "VIS_T"
 "YPLUS"
ZONE
DT=(DOUBLE,DOUBLE,DOUBLE,DOUBLE,DOUBLE,DOUBLE,DOUBLE,DOUBLE,DOUBLE,DOUBLE,DOUBLE,DOUBLE,DOUBLE,DOUBLE,DOUBLE,DOUBLE,DOUBLE,DOUBLE,DOUBLE,DOUBLE,DOUBLE)
                    7.9                    0.15                       0        1.11182796657085                       0                       0                       0                       0                       0       -4500.42352294922       -4404.02258911133   1.84012205863837E-005      0.0024287257459946        299.606888198853        301704.141015625    0.000135991349452524                    1007      0.0264359913999215   2.49999993684469E-005   1.21541417286153E-007        4.45958662629127 
                    7.9                    0.15   1.00033344448149E-006        1.11183551622753       0.403010637690906    4.2167516365385E-007   2.51804437814254E-007       0.403010637690906      0.0011631971639406       -4500.42352294922       -4400.88735458003   1.84011241659951E-005     0.00238013486018829         299.60396058724        301706.639973611    0.000551961251859572                    1007      0.0268519612834047   2.55228215031263E-005   4.93311933971861E-007        4.37036504063577 
                    7.9                    0.15   2.00066688896299E-006         1.1118430658842       0.806021275381812   8.43350327307699E-007   5.03608875628508E-007       0.806021275381812      0.0023263943278812       -4500.42352294922       -4397.75212004873   1.84010277456065E-005     0.00233154397438198        299.601032975627        301709.138931597    0.000967931154266619                    1007       0.027267931166888   2.60456436378056E-005   8.65082450657568E-007        4.28114345498026 
                    7.9                    0.15   3.00100033344448E-006        1.11185061554088        1.20903191307272   1.26502549096155E-006   7.55413313442762E-007        1.20903191307272     0.00348959149182181       -4500.42352294922       -4394.61688551742   1.84009313252178E-005     0.00228295308857568        299.598105364014        301711.637889583     0.00138390105667367                    1007      0.0276839010503712    2.6568465772485E-005   1.23685296734328E-006        4.19192186932476 
                    7.9                    0.15   4.00133377792597E-006        1.11185816519755        1.61204255076362    1.6867006546154E-006   1.00721775125702E-006        1.61204255076362     0.00465278865576241       -4500.42352294922       -4391.48165098612   1.84008349048292E-005     0.00223436220276937        299.595177752402        301714.136847569     0.00179987095908071                    1007      0.0280998709338545   2.70912879071644E-005   1.60862348402898E-006        4.10270028366925 
                    7.9                    0.15   5.00166722240747E-006        1.11186571485422        2.01505318845453   2.10837581826925E-006   1.25902218907127E-006        2.01505318845453     0.00581598581970301       -4500.42352294922       -4388.34641645482   1.84007384844406E-005     0.00218577131696306        299.592250140789        301716.635805555     0.00221584086148776                    1007      0.0285158408173377   2.76141100418438E-005   1.98039400071469E-006        4.01347869801374 
                    7.9                    0.15   6.00200066688896E-006         1.1118732645109        2.41806382614544    2.5300509819231E-006   1.51082662688552E-006        2.41806382614544     0.00697918298364361       -4500.42352294922       -4385.21118192352    1.8400642064052E-005     0.00213718043115676        299.589322529176        301719.134763541     0.00263181076389481                    1007       0.028931810700821   2.81369321765232E-005    2.3521645174004E-006        3.92425711235824 
                    7.9                    0.15   7.00233411137046E-006        1.11188081416757        2.82107446383634   2.95172614557695E-006   1.76263106469978E-006        2.82107446383634     0.00814238014758422       -4500.42352294922       -4382.07594739222   1.84005456436634E-005     0.00208858954535045        299.586394917564        301721.633721527     0.00304778066630186                    1007      0.0293477805843042   2.86597543112025E-005   2.72393503408611E-006        3.83503552670273 
                    7.9                    0.15   8.00266755585195E-006        1.11188836382424        3.22408510152725    3.3734013092308E-006   2.01443550251403E-006        3.22408510152725     0.00930557731152482       -4500.42352294922       -4378.94071286092   1.84004492232747E-005     0.00203999865954414        299.583467305951        301724.132679513      0.0034637505687089                    1007      0.0297637504677875   2.91825764458819E-005   3.09570555077181E-006        3.74581394104722 
                    7.9                    0.15   9.00300100033344E-006        1.11189591348092        3.62709573921816   3.79507647288464E-006   2.26623994032829E-006        3.62709573921816      0.0104687744754654       -4500.42352294922       -4375.80547832962   1.84003528028861E-005     0.00199140777373783        299.580539694338        301726.631637499     0.00387972047111595                    1007      0.0301797203512707   2.97053985805613E-005   3.46747606745752E-006        3.65659235539172 
                    7.9                    0.15   1.00033344448149E-005        1.11190346313759        4.03010637690906   4.21675163653849E-006   2.51804437814254E-006        4.03010637690906       0.011631971639406       -4500.42352294922       -4372.67024379831   1.84002563824975E-005     0.00194281688793153        299.577612082725        301729.130595485       0.004295690373523                    1007       0.030595690234754   3.02282207152407E-005   3.83924658414323E-006        3.56737076973621 
                    7.9                    0.15   1.10036678892964E-005        1.11191101279426        4.43311701459997   4.63842680019234E-006    2.7698488159568E-006        4.43311701459997      0.0127951688033466       -4500.42352294922       -4369.53500926701   1.84001599621089E-005     0.00189422600212522        299.574684471113        301731.629553471     0.00471166027593005                    1007      0.0310116601182372   3.07510428499201E-005   4.21101710082894E-006        3.47814918408071 
                    7.9                    0.15   1.20040013337779E-005        1.11191856245094        4.83612765229087   5.06010196384619E-006   3.02165325377105E-006        4.83612765229087      0.0139583659672872       -4500.42352294922       -4366.39977473571   1.84000635417202E-005     0.00184563511631891          299.5717568595        301734.128511457     0.00512763017833709                    1007      0.0314276300017205   3.12738649845994E-005   4.58278761751465E-006         3.3889275984252 
                    7.9                    0.15   1.30043347782594E-005        1.11192611210761        5.23913828998178   5.48177712750004E-006    3.2734576915853E-006        5.23913828998178      0.0151215631312278       -4500.42352294922       -4363.26454020441   1.83999671213316E-005      0.0017970442305126        299.568829247887        301736.627469443     0.00554360008074414                    1007      0.0318435998852037   3.17966871192788E-005   4.95455813420035E-006        3.29970601276969 
                    7.9                    0.15   1.40046682227409E-005        1.11193366176429        5.64214892767269   5.90345229115389E-006   3.52526212939956E-006        5.64214892767269      0.0162847602951684       -4500.42352294922       -4360.12930567311    1.8399870700943E-005      0.0017484533447063        299.565901636274        301739.126427429     0.00595956998315119                    1007       0.032259569768687   3.23195092539582E-005   5.32632865088606E-006        3.21048442711419 
                    7.9                    0.15   1.50050016672224E-005        1.11194121142096        6.04515956536359   6.32512745480774E-006   3.77706656721381E-006        6.04515956536359       0.017447957459109       -4500.42352294922       -4356.99407114181   1.83997742805544E-005     0.00169986245889999        299.562974024662        301741.625385415     0.00637553988555823                    1007      0.0326755396521702   3.28423313886376E-005   5.69809916757177E-006        3.12126284145868 
                    7.9                    0.15   1.60053351117039E-005        1.11194876107763         6.4481702030545   6.74680261846159E-006   4.02887100502807E-006         6.4481702030545      0.0186111546230496       -4500.42352294922       -4353.85883661051   1.83996778601657E-005     0.00165127157309368        299.560046413049        301744.124343401     0.00679150978796528                    1007      0.0330915095356535    3.3365153523317E-005   6.06986968425748E-006        3.03204125580317 
                    7.9                    0.15   1.70056685561854E-005        1.11195631073431        6.85118084074541   7.16847778211544E-006   4.28067544284232E-006        6.85118084074541      0.0197743517869902       -4500.42352294922        -4350.7236020792   1.83995814397771E-005     0.00160268068728738        299.557118801436        301746.623301387     0.00720747969037233                    1007      0.0335074794191367   3.38879756579963E-005   6.44164020094319E-006        2.94281967014767 
                    7.9                    0.15   1.80060020006669E-005        1.11196386039098        7.25419147843631   7.59015294576929E-006   4.53247988065657E-006        7.25419147843631      0.0209375489509308       -4500.42352294922        -4347.5883675479   1.83994850193885E-005     0.00155408980148107        299.554191189823        301749.122259373     0.00762344959277938                    1007        0.03392344930262   3.44107977926757E-005   6.81341071762889E-006        2.85359808449216 
                    7.9                    0.15   1.90063354451484E-005        1.11197141004765        7.65720211612722   8.01182810942314E-006   4.78428431847083E-006        7.65720211612722      0.0221007461148715       -4500.42352294922        -4344.4531330166   1.83993885989999E-005     0.00150549891567476        299.551263578211        301751.621217359     0.00803941949518642                    1007      0.0343394191861032   3.49336199273551E-005    7.1851812343146E-006        2.76437649883665 
                    7.9                    0.15   2.00066688896299E-005        1.11197895970433        8.06021275381812   8.43350327307699E-006   5.03608875628508E-006        8.06021275381812      0.0232639432788121       -4500.42352294922        -4341.3178984853   1.83992921786112E-005     0.00145690802986845        299.548335966598        301754.120175345     0.00845538939759347                    1007      0.0347553890695865   3.54564420620345E-005   7.55695175100031E-006        2.67515491318115 
                    7.9                    0.15   2.10070023341114E-005          1.111986509361        8.46322339150903   8.85517843673084E-006   5.28789319409934E-006        8.46322339150903      0.0244271404427527       -4500.42352294922         -4338.182663954   1.83991957582226E-005     0.00140831714406215        299.545408354985        301756.619133331     0.00887135930000052                    1007      0.0351713589530697   3.59792641967139E-005   7.92872226768602E-006        2.58593332752564 
                    7.9                    0.15   2.20073357785929E-005        1.11199405901768        8.86623402919994   9.27685360038469E-006   5.53969763191359E-006        8.86623402919994      0.0255903376066933       -4500.42352294922        -4335.0474294227    1.8399099337834E-005     0.00135972625825584        299.542480743373        301759.118091317     0.00928732920240757                    1007       0.035587328836553   3.65020863313933E-005   8.30049278437172E-006        2.49671174187013 
                    7.9                    0.15   2.30076692230744E-005        1.11200160867435        9.26924466689084   9.69852876403854E-006   5.79150206972785E-006        9.26924466689084      0.0267535347706339       -4500.42352294922        -4331.9121948914   1.83990029174454E-005     0.00131113537244953         299.53955313176        301761.617049303     0.00970329910481461                    1007      0.0360032987200362   3.70249084660726E-005   8.67226330105743E-006        2.40749015621463 
                    7.9                    0.15   2.40080026675559E-005        1.11200915833102        9.67225530458175   1.01202039276924E-005    6.0433065075421E-006        9.67225530458175      0.0279167319345745       -4500.42352294922       -4328.77696036009   1.83989064970567E-005     0.00126254448664323        299.536625520147        301764.116007289      0.0101192690072217                    1007      0.0364192686035195    3.7547730600752E-005   9.04403381774314E-006        2.31826857055912 
                    7.9                    0.15   2.50083361120373E-005         1.1120167072327          10.07524133546   1.05430587026612E-005   6.29528478693636E-006          10.07524133546      0.0290798580345656       -4500.42352294922        -4325.6419423011   1.83988100881884E-005     0.00121395800694335        299.533698295092         301766.61456944      0.0105351707287076                    1007      0.0368351702896767   3.80705527354314E-005   9.41574338835305E-006        2.22905096825777 
                    7.9                    0.15   2.60086695565188E-005        1.11202425615425         10.478228014099   1.09658824250124E-005   6.54725849004685E-006         10.478228014099      0.0302429860052759       -4500.42352294922       -4322.50691854359   1.83987136790169E-005     0.00116537141125515        299.530771059861        301769.113142011      0.0109510742450187                    1007      0.0372510737710909   3.85933748701108E-005   9.78745456333482E-006        2.13983326109682 
                    7.9                    0.15   2.70090030010003E-005        1.11203180581093        10.8812386517899   1.13875575886662E-005    6.7990629278611E-006        10.8812386517899      0.0314061831692165       -4500.42352294922       -4319.37168401228   1.83986172586282E-005     0.00111678052544885        299.527843448248        301771.612099997      0.0113670441474257                    1007      0.0376670436545741   3.91161970047902E-005   1.01592250800205E-005        2.05061167544131 
                    7.9                    0.15   2.80093364454818E-005         1.1120393554676        11.2842492894808   1.18092327523201E-005   7.05086736567536E-006        11.2842492894808      0.0325693803331571       -4500.42352294922       -4316.23644948098   1.83985208382396E-005     0.00106818963964254        299.524915836636        301774.111057983      0.0117830140498328                    1007      0.0380830135380574   3.96390191394695E-005   1.05309955967062E-005        1.96139008978581 
                    7.9                    0.15   2.90096698899633E-005        1.11204690512427        11.6872599271717   1.22309079159739E-005   7.30267180348961E-006        11.6872599271717      0.0337325774970978       -4500.42352294922       -4313.10121494968    1.8398424417851E-005     0.00101959875383623        299.521988225023        301776.610015969      0.0121989839522398                    1007      0.0384989834215406   4.01618412741489E-005   1.09027661133919E-005         1.8721685041303 
                    7.9                    0.15   3.00100033344448E-005        1.11205445478095        12.0902705648626   1.26525830796278E-005   7.55447624130387E-006        12.0902705648626      0.0348957746610383       -4500.42352294922       -4309.96598041838   1.83983279974624E-005    0.000971007868029924         299.51906061341        301779.108973955      0.0126149538546469                    1007      0.0389149533050239   4.06846634088283E-005   1.12745366300777E-005         1.7829469184748 
                    7.9                    0.15   3.10103367789263E-005        1.11206200443762        12.4932812025535   1.30742582432816E-005   7.80628067911812E-006        12.4932812025535      0.0360589718249789       -4500.42352294922       -4306.83074588708   1.83982315770738E-005    0.000922416982223616        299.516133001798        301781.607931941      0.0130309237570539                    1007      0.0393309231885071   4.12074855435077E-005   1.16463071467634E-005        1.69372533281929 
                    7.9                    0.15   3.20106702234078E-005         1.1120695540943        12.8962918402444   1.34959334069355E-005   8.05808511693237E-006        12.8962918402444      0.0372221689889196       -4500.42352294922       -4303.69551135578   1.83981351566851E-005     0.00087382609641731        299.513205390185        301784.106889927       0.013446893659461                    1007      0.0397468930719904   4.17303076781871E-005   1.20180776634491E-005        1.60450374716378 
                    7.9                    0.15   3.30110036678893E-005        1.11207710375097        13.2993024779353   1.39176085705893E-005   8.30988955474663E-006        13.2993024779353      0.0383853661528602       -4500.42352294922       -4300.56027682448   1.83980387362965E-005    0.000825235210611002        299.510277778572        301786.605847913       0.013862863561868                    1007      0.0401628629554736   4.22531298128664E-005   1.23898481801348E-005        1.51528216150828 
                    7.9                    0.15   3.40113371123708E-005        1.11208465340764        13.7023131156263   1.43392837342432E-005   8.56169399256088E-006        13.7023131156263      0.0395485633168008       -4500.42352294922       -4297.42504229317   1.83979423159079E-005    0.000776644324804695        299.507350166959        301789.104805899      0.0142788334642751                    1007      0.0405788328389569   4.27759519475458E-005   1.27616186968205E-005        1.42606057585277 
                    7.9                    0.15   3.50116705568523E-005        1.11209220306432        14.1053237533172    1.4760958897897E-005   8.81349843037513E-006        14.1053237533172      0.0407117604807413       -4500.42352294922       -4294.28980776187   1.83978458955193E-005    0.000728053438998388        299.504422555347        301791.603763885      0.0146948033666821                    1007      0.0409948027224401   4.32987740822252E-005   1.31333892135062E-005        1.33683899019726 
                    7.9                    0.15   3.60120040013338E-005        1.11209975272099        14.5083343910081   1.51826340615509E-005   9.06530286818939E-006        14.5083343910081       0.041874957644682       -4500.42352294922       -4291.15457323057   1.83977494751306E-005    0.000679462553192081        299.501494943734        301794.102721871      0.0151107732690891                    1007      0.0414107726059234   4.38215962169046E-005   1.35051597301919E-005        1.24761740454176 
                    7.9                    0.15   3.70123374458153E-005        1.11210730237766         14.911345028699   1.56043092252047E-005   9.31710730600364E-006         14.911345028699      0.0430381548086226       -4500.42352294922       -4288.01933869927    1.8397653054742E-005    0.000630871667385773        299.498567332121        301796.601679857      0.0155267431714962                    1007      0.0418267424894066    4.4344418351584E-005   1.38769302468776E-005        1.15839581888625 
                    7.9                    0.15   3.80126708902968E-005        1.11211485203434        15.3143556663899   1.60259843888586E-005    9.5689117438179E-006        15.3143556663899      0.0442013519725632       -4500.42352294922       -4284.88410416797   1.83975566343534E-005    0.000582280781579466        299.495639720508        301799.100637843      0.0159427130739032                    1007      0.0422427123728899   4.48672404862633E-005   1.42487007635633E-005        1.06917423323074 
                    7.9                    0.15   3.90130043347783E-005        1.11212240169101        15.7173663040808   1.64476595525124E-005   9.82071618163215E-006        15.7173663040808      0.0453645491365038       -4500.42352294922       -4281.74886963667   1.83974602139648E-005    0.000533689895773159        299.492712108896        301801.599595829      0.0163586829763103                    1007      0.0426586822563731   4.53900626209427E-005    1.4620471280249E-005       0.979952647575238 
                    7.9                    0.15   4.00133377792598E-005        1.11212995134769        16.1203769417717   1.68693347161663E-005   1.00725206194464E-005        16.1203769417717      0.0465277463004444       -4500.42352294922       -4278.61363510537   1.83973637935761E-005    0.000485099009966852        299.489784497283        301804.098553815      0.0167746528787173                    1007      0.0430746521398564   4.59128847556221E-005   1.49922417969347E-005       0.890731061919732 
                    7.9                    0.15   4.10136712237412E-005        1.11213750100436        16.5233875794626   1.72910098798201E-005   1.03243250572607E-005        16.5233875794626       0.047690943464385       -4500.42352294922       -4275.47840057406   1.83972673731875E-005    0.000436508124160545         299.48685688567        301806.597511801      0.0171906227811244                    1007      0.0434906220233396   4.64357068903015E-005   1.53640123136204E-005       0.801509476264225 
                    7.9                    0.15   4.20140046682227E-005        1.11214505066103        16.9263982171535    1.7712685043474E-005   1.05761294950749E-005        16.9263982171535      0.0488541406283256       -4500.42352294922       -4272.34316604276   1.83971709527989E-005    0.000387917238354238        299.483929274058        301809.096469787      0.0176065926835314                    1007      0.0439065919068229   4.69585290249809E-005   1.57357828303061E-005       0.712287890608719 
                    7.9                    0.15   4.30143381127042E-005        1.11215260031771        17.3294088548444   1.81343602071278E-005   1.08279339328892E-005        17.3294088548444      0.0500173377922662       -4500.42352294922       -4269.20793151146   1.83970745324103E-005    0.000339326352547931        299.481001662445        301811.595427773      0.0180225625859385                    1007      0.0443225617903061   4.74813511596602E-005   1.61075533469919E-005       0.623066304953213 
                    7.9                    0.15   4.40146715571857E-005        1.11216014997438        17.7324194925353   1.85560353707817E-005   1.10797383707034E-005        17.7324194925353      0.0511805349562068       -4500.42352294922       -4266.07269698016   1.83969781120217E-005    0.000290735466741623        299.478074050832        301814.094385759      0.0184385324883455                    1007      0.0447385316737894   4.80041732943396E-005   1.64793238636776E-005       0.533844719297706 
                    7.9                    0.15   4.50150050016672E-005        1.11216769963105        18.1354301302262   1.89777105344355E-005   1.13315428085177E-005        18.1354301302262      0.0523437321201474       -4500.42352294922       -4262.93746244886    1.8396881691633E-005    0.000242144580935316        299.475146439219        301816.593343745      0.0188545023907526                    1007      0.0451545015572726    4.8526995429019E-005   1.68510943803633E-005       0.444623133642199 
                    7.9                    0.15   4.60153384461487E-005        1.11217524928773        18.5384407679171   1.93993856980894E-005   1.15833472463319E-005        18.5384407679171       0.053506929284088       -4500.42352294922       -4259.80222791756   1.83967852712444E-005    0.000193553695129009        299.472218827607        301819.092301731      0.0192704722931596                    1007      0.0455704714407559   4.90498175636984E-005    1.7222864897049E-005       0.355401547986693 
                    7.9                    0.15   4.70156718906302E-005         1.1121827989444         18.941451405608   1.98210608617432E-005   1.18351516841462E-005         18.941451405608      0.0546701264480286       -4500.42352294922       -4256.66699338626   1.83966888508558E-005    0.000144962809322702        299.469291215994        301821.591259717      0.0196864421955667                    1007      0.0459864413242391   4.95726396983778E-005   1.75946354137347E-005       0.266179962331188 
                    7.9                    0.15   4.80160053351117E-005        1.11219034860107        19.3444620432989   2.02427360253971E-005   1.20869561219604E-005        19.3444620432989      0.0558333236119692       -4500.42352294922       -4253.53175885496   1.83965924304672E-005   9.63719235163947E-005        299.466363604381        301824.090217703      0.0201024120979737                    1007      0.0464024112077224   5.00954618330571E-005   1.79664059304204E-005        0.17695837667568 
                    7.9                    0.15   4.90163387795932E-005        1.11219789825775        19.7474726809898   2.06644111890509E-005   1.23387605597747E-005        19.7474726809898      0.0569965207759098       -4500.42352294922       -4250.39652432365   1.83964960100785E-005   4.77810377100878E-005        299.463435992769        301826.589175689      0.0205183820003808                    1007      0.0468183810912056   5.06182839677365E-005   1.83381764471061E-005      0.0877367910201743 
                    7.9                    0.15   5.00166722240747E-005        1.11220551939694        20.1467011888879   2.10821135504143E-005   1.25922365771107E-005        20.1467011888879      0.0581488093094099       -4500.42352294922       -4247.23897207241   1.83963986776187E-005                       0        299.460507591689        301829.059817778      0.0209515511834163                    1007      0.0472515502542091   5.11490959259462E-005   1.87253187139769E-005   2.23110888232461E-006 
                    7.9                    0.15   5.10170056685562E-005         1.1122173580045        20.3227840388555   2.12654205764795E-005   1.29443357862973E-005        20.3227840388555      0.0586574886464715       -4500.42352294922       -4242.76467434336   1.83962475329556E-005                       0        299.457532612042        301829.859821939      0.0223994779242389                    1007      0.0486994769096071   5.21513074727674E-005    2.0019394242398E-005   2.19016710246521E-006 
                    7.9                    0.15   5.20173391130377E-005        1.11222919661207         20.498866888823   2.14487276025447E-005    1.3296434995484E-005         20.498866888823      0.0591661679835331       -4500.42352294922       -4238.29037661431   1.83960963882925E-005                       0        299.454557632396        301830.659826101      0.0238474046650615                    1007      0.0501474035650052   5.31535190195887E-005   2.13134697708191E-005   2.14922532260581E-006 
                    7.9                    0.15   5.30176725575192E-005        1.11224103521964        20.6749497387905   2.16320346286099E-005   1.36485342046707E-005        20.6749497387905      0.0596748473205948       -4500.42352294922       -4233.81607888526   1.83959452436295E-005                       0        299.451582652749        301831.459830263      0.0252953314058841                    1007      0.0515953302204032     5.415573056641E-005   2.26075452992402E-005   2.10828354274641E-006 
                    7.9                    0.15   5.40180060020007E-005         1.1122528738272         20.851032588758   2.18153416546751E-005   1.40006334138573E-005         20.851032588758      0.0601835266576564       -4500.42352294922       -4229.34178115621   1.83957940989664E-005                       0        299.448607673103        301832.259834424      0.0267432581467067                    1007      0.0530432568758013   5.51579421132312E-005   2.39016208276613E-005   2.06734176288701E-006 
                    7.9                    0.15   5.50183394464822E-005        1.11226471243477        21.0271154387255   2.19986486807403E-005    1.4352732623044E-005        21.0271154387255      0.0606922059947181       -4500.42352294922       -4224.86748342717   1.83956429543033E-005                       0        299.445632693456        301833.059838586      0.0281911848875292                    1007      0.0544911835311994   5.61601536600525E-005   2.51956963560824E-005   2.02639998302761E-006 
                    7.9                    0.15   5.60186728909637E-005        1.11227655104234        21.2031982886931   2.21819557068055E-005   1.47048318322306E-005        21.2031982886931      0.0612008853317797       -4500.42352294922       -4220.39318569812   1.83954918096403E-005                       0         299.44265771381        301833.859842748      0.0296391116283518                    1007      0.0559391101865975   5.71623652068738E-005   2.64897718845036E-005   1.98545820316821E-006 
                    7.9                    0.15   5.70190063354451E-005        1.11228838964991        21.3792811386606   2.23652627328707E-005   1.50569310414173E-005        21.3792811386606      0.0617095646688414       -4500.42352294922       -4215.91888796907   1.83953406649772E-005                       0        299.439682734163        301834.659846909      0.0310870383691744                    1007      0.0573870368419955    5.8164576753695E-005   2.77838474129247E-005   1.94451642330881E-006 