VARIABLES = "X"
 "Y"
 "Z"
 "RHO"
 "U"
 "V"
 "W"
 "VelocityMagnitude"
 "Mach"
 "P"
 "P_tot"
 "Vislam"
 "SkinFrictionCoefficient"
 "T"
 "H0"
 "COND_TURB"
 "CP"
 "COND_eff"
 "D"
 "K"
 "VIS_T"
 "YPLUS"
ZONE
DT=(DOUBLE,DOUBLE,DOUBLE,DOUBLE,DOUBLE,DOUBLE,DOUBLE,DOUBLE,DOUBLE,DOUBLE,DOUBLE,DOUBLE,DOUBLE,DOUBLE,DOUBLE,DOUBLE,DOUBLE,DOUBLE,DOUBLE,DOUBLE,DOUBLE,DOUBLE)
                    7.9                    0.15                       0        1.11171376407146                       0                       0                       0                       0                       0       -4500.49627685547        -4354.7395324707   1.84026703209383E-005     0.00930046354187653        299.637466812134        301734.922265625      0.0439477905631065                    1007      0.0702477887272835            3211883.3125                       0   3.92780644233426E-005        4.94462531208992 
                    7.9                    0.15   1.00033344448149E-006        1.11172035615835       0.399436581806475   3.38627767986853E-007   2.67564258445156E-007       0.399436581806475     0.00115279797694386       -4500.49627685547       -4353.05787328483   1.84025860918425E-005     0.00911439154272662         299.63517234614        301737.264296302      0.0445277725752888                    1007      0.0708277707394657        3191355.36234995           0.68017427267   3.97964197411356E-005        4.84569974055418 
                    7.9                    0.15   2.00066688896299E-006        1.11172694824524        0.79887316361295   6.77255535973706E-007   5.35128516890313E-007        0.79887316361295     0.00230559595388772       -4500.49627685547       -4351.37621409895   1.84025018627466E-005     0.00892831954357672        299.632877880146        301739.606326979       0.045107754587471                    1007      0.0714077527516479        3170827.41219991           1.36034854534   4.03147750589286E-005        4.74677416901844 
                    7.9                    0.15   3.00100033344448E-006        1.11173354033213        1.19830974541942   1.01588330396056E-006   8.02692775335469E-007        1.19830974541942     0.00345839393083157       -4500.49627685547       -4349.69455491308   1.84024176336508E-005     0.00874224754442682        299.630583414152        301741.948357656      0.0456877365996532                    1007      0.0719877347638302        3150299.46204986           2.04052281801   4.08331303767216E-005         4.6478485974827 
                    7.9                    0.15   4.00133377792597E-006        1.11174013241902         1.5977463272259   1.35451107194741E-006   1.07025703378063E-006         1.5977463272259     0.00461119190777543       -4500.49627685547       -4348.01289572721   1.84023334045549E-005     0.00855617554527692        299.628288948158        301744.290388333      0.0462677186118355                    1007      0.0725677167760124        3129771.51189982           2.72069709068   4.13514856945147E-005        4.54892302594696 
                    7.9                    0.15   5.00166722240747E-006        1.11174672450591        1.99718290903237   1.69313883993427E-006   1.33782129222578E-006        1.99718290903237     0.00576398988471929       -4500.49627685547       -4346.33123654133   1.84022491754591E-005     0.00837010354612702        299.625994482164        301746.632419009      0.0468477006240177                    1007      0.0731476987881946        3109243.56174977           3.40087136335   4.18698410123077E-005        4.44999745441123 
                    7.9                    0.15   6.00200066688896E-006         1.1117533165928        2.39661949083885   2.03176660792112E-006   1.60538555067094E-006        2.39661949083885     0.00691678786166315       -4500.49627685547       -4344.64957735546   1.84021649463632E-005     0.00818403154697711        299.623700016171        301748.974449686      0.0474276826361999                    1007      0.0737276808003769        3088715.61159973           4.08104563602   4.23881963301007E-005        4.35107188287549 
                    7.9                    0.15   7.00233411137046E-006        1.11175990867969        2.79605607264532   2.37039437590797E-006    1.8729498091161E-006        2.79605607264532     0.00806958583860701       -4500.49627685547       -4342.96791816958   1.84020807172674E-005     0.00799795954782721        299.621405550177        301751.316480363      0.0480076646483822                    1007      0.0743076628125591        3068187.66144968           4.76121990869   4.29065516478937E-005        4.25214631133975 
                    7.9                    0.15   8.00266755585195E-006        1.11176650076657         3.1954926544518   2.70902214389482E-006   2.14051406756125E-006         3.1954926544518     0.00922238381555086       -4500.49627685547       -4341.28625898371   1.84019964881715E-005     0.00781188754867731        299.619111084183         301753.65851104      0.0485876466605644                    1007      0.0748876448247413        3047659.71129964           5.44139418136   4.34249069656867E-005        4.15322073980401 
                    7.9                    0.15   9.00300100033344E-006        1.11177309285346        3.59492923625827   3.04764991188168E-006   2.40807832600641E-006        3.59492923625827      0.0103751817924947       -4500.49627685547       -4339.60459979784   1.84019122590756E-005     0.00762581554952741        299.616816618189        301756.000541717      0.0491676286727466                    1007      0.0754676268369236        3027131.76114959           6.12156845403   4.39432622834798E-005        4.05429516826827 
                    7.9                    0.15   1.00033344448149E-005        1.11177968494035        3.99436581806475   3.38627767986853E-006   2.67564258445156E-006        3.99436581806475      0.0115279797694386       -4500.49627685547       -4337.92294061196   1.84018280299798E-005     0.00743974355037751        299.614522152195        301758.342572394      0.0497476106849289                    1007      0.0760476088491058        3006603.81099955            6.8017427267   4.44616176012728E-005        3.95536959673253 
                    7.9                    0.15   1.10036678892964E-005        1.11178627702724        4.39380239987123   3.72490544785538E-006   2.94320684289672E-006        4.39380239987123      0.0126807777463824       -4500.49627685547       -4336.24128142609   1.84017438008839E-005     0.00725367155122761        299.612227686201        301760.684603071      0.0503275926971111                    1007      0.0766275908612881         2986075.8608495           7.48191699937   4.49799729190658E-005        3.85644402519679 
                    7.9                    0.15   1.20040013337779E-005        1.11179286911413         4.7932389816777   4.06353321584224E-006   3.21077110134188E-006         4.7932389816777      0.0138335757233263       -4500.49627685547       -4334.55962224021   1.84016595717881E-005      0.0070675995520777        299.609933220207        301763.026633748      0.0509075747092933                    1007      0.0772075728734703        2965547.91069946           8.16209127204   4.54983282368588E-005        3.75751845366105 
                    7.9                    0.15   1.30043347782594E-005        1.11179946120102        5.19267556348417   4.40216098382909E-006   3.47833535978703E-006        5.19267556348417      0.0149863737002702       -4500.49627685547       -4332.87796305434   1.84015753426922E-005      0.0068815275529278        299.607638754213        301765.368664425      0.0514875567214756                    1007      0.0777875548856525        2945019.96054941           8.84226554471   4.60166835546518E-005        3.65859288212532 
                    7.9                    0.15   1.40046682227409E-005        1.11180605328791        5.59211214529065   4.74078875181594E-006   3.74589961823219E-006        5.59211214529065       0.016139171677214       -4500.49627685547       -4331.19630386847   1.84014911135964E-005      0.0066954555537779         299.60534428822        301767.710695102      0.0520675387336578                    1007      0.0783675368978348        2924492.01039936           9.52243981738   4.65350388724449E-005        3.55966731058958 
                    7.9                    0.15   1.50050016672224E-005        1.11181264537479        5.99154872709712    5.0794165198028E-006   4.01346387667735E-006        5.99154872709712      0.0172919696541579       -4500.49627685547       -4329.51464468259   1.84014068845005E-005       0.006509383554628        299.603049822226        301770.052725778        0.05264752074584                    1007       0.078947518910017        2903964.06024932          10.20261409005   4.70533941902379E-005        3.46074173905384 
                    7.9                    0.15   1.60053351117039E-005        1.11181923746168         6.3909853089036   5.41804428778965E-006    4.2810281351225E-006         6.3909853089036      0.0184447676311017       -4500.49627685547       -4327.83298549672   1.84013226554047E-005      0.0063233115554781        299.600755356232        301772.394756455      0.0532275027580223                    1007      0.0795275009221992        2883436.11009927          10.88278836272   4.75717495080309E-005         3.3618161675181 
                    7.9                    0.15   1.70056685561854E-005        1.11182582954857        6.79042189071007    5.7566720557765E-006   4.54859239356766E-006        6.79042189071007      0.0195975656080456       -4500.49627685547       -4326.15132631084   1.84012384263088E-005     0.00613723955632819        299.598460890238        301774.736787132      0.0538074847702045                    1007      0.0801074829343814        2862908.15994923          11.56296263539   4.80901048258239E-005        3.26289059598236 
                    7.9                    0.15   1.80060020006669E-005        1.11183242163546        7.18985847251655   6.09529982376336E-006   4.81615665201282E-006        7.18985847251655      0.0207503635849894       -4500.49627685547       -4324.46966712497   1.84011541972129E-005     0.00595116755717829        299.596166424244        301777.078817809      0.0543874667823867                    1007      0.0806874649465637        2842380.20979918          12.24313690806   4.86084601436169E-005        3.16396502444662 
                    7.9                    0.15   1.90063354451484E-005        1.11183901372235        7.58929505432302   6.43392759175021E-006   5.08372091045797E-006        7.58929505432302      0.0219031615619333       -4500.49627685547        -4322.7880079391   1.84010699681171E-005     0.00576509555802839         299.59387195825        301779.420848486       0.054967448794569                    1007      0.0812674469587459        2821852.25964914          12.92331118073   4.91268154614099E-005        3.06503945291088 
                    7.9                    0.15   2.00066688896299E-005        1.11184560580924         7.9887316361295   6.77255535973706E-006   5.35128516890313E-006         7.9887316361295      0.0230559595388772       -4500.49627685547       -4321.10634875322   1.84009857390212E-005     0.00557902355887849        299.591577492256        301781.762879163      0.0555474308067512                    1007      0.0818474289709281        2801324.30949909           13.6034854534    4.9645170779203E-005        2.96611388137514 
                    7.9                    0.15   2.10070023341114E-005        1.11185219789613        8.38816821793597   7.11118312772391E-006   5.61884942734829E-006        8.38816821793597       0.024208757515821       -4500.49627685547       -4319.42468956735   1.84009015099254E-005     0.00539295155972858        299.589283026262         301784.10490984      0.0561274128189334                    1007      0.0824274109831104        2780796.35934905          14.28365972607    5.0163526096996E-005        2.86718830983941 
                    7.9                    0.15   2.20073357785929E-005        1.11185878998302        8.78760479974245   7.44981089571077E-006   5.88641368579344E-006        8.78760479974245      0.0253615554927649       -4500.49627685547       -4317.74303038147   1.84008172808295E-005     0.00520687956057868        299.586988560269        301786.446940517      0.0567073948311157                    1007      0.0830073929952926          2760268.409199          14.96383399874    5.0681881414789E-005        2.76826273830367 
                    7.9                    0.15   2.30076692230744E-005         1.1118653820699        9.18704138154892   7.78843866369762E-006    6.1539779442386E-006        9.18704138154892      0.0265143534697087       -4500.49627685547        -4316.0613711956   1.84007330517337E-005     0.00502080756142878        299.584694094275        301788.788971193      0.0572873768432979                    1007      0.0835873750074748        2739740.45904896          15.64400827141    5.1200236732582E-005        2.66933716676793 
                    7.9                    0.15   2.40080026675559E-005        1.11187197415679         9.5864779633554   8.12706643168447E-006   6.42154220268376E-006         9.5864779633554      0.0276671514466526       -4500.49627685547       -4314.37971200973   1.84006488226378E-005     0.00483473556227888        299.582399628281         301791.13100187      0.0578673588554801                    1007      0.0841673570196571        2719212.50889891          16.32418254408    5.1718592050375E-005        2.57041159523219 
                    7.9                    0.15   2.50083361120373E-005        1.11187856473369        9.98588842835824   8.46680541486568E-006   6.68944741066378E-006        9.98588842835824      0.0288198740184229       -4500.49627685547       -4312.69822909416   1.84005646050623E-005     0.00464868140579559        299.580105548845        301793.472636712      0.0584473126497063                    1007      0.0847473108138833        2698686.73584175         17.004306201853   5.22369221386743E-005        2.47148956009351 
                    7.9                    0.15   2.60086695565188E-005        1.11188515535034        10.3852995808715   8.80651514591938E-006   6.95734364333522E-006        10.3852995808715      0.0299725985751929       -4500.49627685547       -4311.01674153837   1.84004803871835E-005     0.00446262677961393        299.577811459233        301795.814281974      0.0590272671867546                    1007      0.0853272653509316        2678160.90547382        17.6844311920354   5.27552528911262E-005        2.37256743186112 
                    7.9                    0.15   2.70090030010003E-005        1.11189174743723         10.784736162678   9.14514291390623E-006   7.22490790178037E-006         10.784736162678      0.0311253965521367       -4500.49627685547       -4309.33508235249   1.84003961580876E-005     0.00427655478046403        299.575516993239        301798.156312651      0.0596072491989369                    1007      0.0859072473631138        2657632.95532378        18.3646054647053   5.32736082089192E-005        2.27364186032538 
                    7.9                    0.15   2.80093364454818E-005        1.11189833952411        11.1841727444845   9.48377068189308E-006   7.49247216022553E-006        11.1841727444845      0.0322781945290806       -4500.49627685547       -4307.65342316662   1.84003119289918E-005     0.00409048278131412        299.573222527245        301800.498343328      0.0601872312111191                    1007       0.086487229375296        2637105.00517373        19.0447797373754   5.37919635267122E-005        2.17471628878964 
                    7.9                    0.15   2.90096698899633E-005          1.111904931611         11.583609326291   9.82239844987994E-006   7.76003641867069E-006         11.583609326291      0.0334309925060245       -4500.49627685547       -4305.97176398075   1.84002276998959E-005     0.00390441078216422        299.570928061251        301802.840374005      0.0607672132233013                    1007      0.0870672113874783        2616577.05502369        19.7249540100454   5.43103188445052E-005         2.0757907172539 
                    7.9                    0.15   3.00100033344448E-005        1.11191152369789        11.9830459080974   1.01610262178668E-005   8.02760067711585E-006        11.9830459080974      0.0345837904829683       -4500.49627685547       -4304.29010479487      1.84001434708E-005     0.00371833878301432        299.568633595257        301805.182404682      0.0613471952354836                    1007      0.0876471933996605        2596049.10487364        20.4051282827153   5.48286741622982E-005        1.97686514571817 
                    7.9                    0.15   3.10103367789263E-005        1.11191811578478        12.3824824899039   1.04996539858536E-005     8.295164935561E-006        12.3824824899039      0.0357365884599122       -4500.49627685547         -4302.608445609   1.84000592417042E-005     0.00353226678386442        299.566339129263        301807.524435359      0.0619271772476658                    1007      0.0882271754118427        2575521.15472359        21.0853025553854   5.53470294800913E-005        1.87793957418243 
                    7.9                    0.15   3.20106702234078E-005        1.11192470787167        12.7819190717104   1.08382817538405E-005   8.56272919400616E-006        12.7819190717104       0.036889386436856       -4500.49627685547       -4300.92678642312   1.83999750126083E-005     0.00334619478471452        299.564044663269        301809.866466036       0.062507159259848                    1007       0.088807157424025        2554993.20457355        21.7654768280553   5.58653847978843E-005        1.77901400264669 
                    7.9                    0.15   3.30110036678893E-005        1.11193129995856        13.1813556535169   1.11769095218273E-005   8.83029345245131E-006        13.1813556535169      0.0380421844137999       -4500.49627685547       -4299.24512723725   1.83998907835125E-005     0.00316012278556462        299.561750197275        301812.208496712      0.0630871412720303                    1007      0.0893871394362072         2534465.2544235        22.4456511007253   5.63837401156773E-005        1.68008843111095 
                    7.9                    0.15   3.40113371123708E-005        1.11193789204545        13.5807922353233   1.15155372898142E-005   9.09785771089647E-006        13.5807922353233      0.0391949823907437       -4500.49627685547       -4297.56346805137   1.83998065544166E-005     0.00297405078641471        299.559455731282        301814.550527389      0.0636671232842125                    1007      0.0899671214483894        2513937.30427346        23.1258253733953   5.69020954334703E-005        1.58116285957521 
                    7.9                    0.15   3.50116705568523E-005        1.11194448413234        13.9802288171298   1.18541650578011E-005   9.36542196934163E-006        13.9802288171298      0.0403477803676876       -4500.49627685547        -4295.8818088655   1.83997223253208E-005     0.00278797878726481        299.557161265288        301816.892558066      0.0642471052963947                    1007      0.0905471034605717        2493409.35412341        23.8059996460653   5.74204507512633E-005        1.48223728803947 
                    7.9                    0.15   3.60120040013338E-005        1.11195107621922        14.3796653989363   1.21927928257879E-005   9.63298622778678E-006        14.3796653989363      0.0415005783446315       -4500.49627685547       -4294.20014967963   1.83996380962249E-005     0.00260190678811491        299.554866799294        301819.234588743       0.064827087308577                    1007      0.0911270854727539        2472881.40397337        24.4861739187353   5.79388060690563E-005        1.38331171650373 
                    7.9                    0.15   3.70123374458153E-005        1.11195766830611        14.7791019807428   1.25314205937748E-005   9.90055048623194E-006        14.7791019807428      0.0426533763215753       -4500.49627685547       -4292.51849049375   1.83995538671291E-005     0.00241583478896501          299.5525723333         301821.57661942      0.0654070693207592                    1007      0.0917070674849362        2452353.45382332        25.1663481914053   5.84571613868494E-005        1.28438614496799 
                    7.9                    0.15   3.80126708902968E-005          1.111964260393        15.1785385625492   1.28700483617616E-005   1.01681147446771E-005        15.1785385625492      0.0438061742985192       -4500.49627685547       -4290.83683130788   1.83994696380332E-005     0.00222976278981511        299.550277867306        301823.918650097      0.0659870513329414                    1007      0.0922870494971184        2431825.50367328        25.8465224640753   5.89755167046424E-005        1.18546057343225 
                    7.9                    0.15   3.90130043347783E-005        1.11197085247989        15.5779751443557   1.32086761297485E-005   1.04356790031223E-005        15.5779751443557       0.044958972275463       -4500.49627685547         -4289.155172122   1.83993854089373E-005      0.0020436907906652        299.547983401312        301826.260680774      0.0665670333451237                    1007      0.0928670315093006        2411297.55352323        26.5266967367453   5.94938720224354E-005        1.08653500189652 
                    7.9                    0.15   4.00133377792598E-005        1.11197744456678        15.9774117261622   1.35473038977353E-005   1.07032432615674E-005        15.9774117261622      0.0461117702524069       -4500.49627685547       -4287.47351293613   1.83993011798415E-005      0.0018576187915153        299.545688935318        301828.602711451      0.0671470153573059                    1007      0.0934470135214828        2390769.60337319        27.2068710094153   6.00122273402284E-005       0.987609430360777 
                    7.9                    0.15   4.10136712237413E-005        1.11198403665367        16.3768483079687   1.38859316657222E-005   1.09708075200126E-005        16.3768483079687      0.0472645682293507       -4500.49627685547       -4285.79185375026   1.83992169507456E-005      0.0016715467923654        299.543394469324        301830.944742128      0.0677269973694881                    1007      0.0940269955336651        2370241.65322314        27.8870452820853   6.05305826580214E-005       0.888683858825038 
                    7.9                    0.15   4.20140046682227E-005        1.11199062874056        16.7762848897751    1.4224559433709E-005   1.12383717784577E-005        16.7762848897751      0.0484173662062946       -4500.49627685547       -4284.11019456438   1.83991327216498E-005      0.0014854747932155        299.541100003331        301833.286772804      0.0683069793816704                    1007      0.0946069775458473         2349713.7030731        28.5672195547553   6.10489379758145E-005         0.7897582872893 
                    7.9                    0.15   4.30143381127042E-005        1.11199722082744        17.1757214715816   1.45631872016959E-005   1.15059360369029E-005        17.1757214715816      0.0495701641832385       -4500.49627685547       -4282.42853537851   1.83990484925539E-005      0.0012994027940656        299.538805537337        301835.628803481      0.0688869613938526                    1007      0.0951869595580295        2329185.75292305        29.2473938274253   6.15672932936075E-005       0.690832715753561 
                    7.9                    0.15   4.40146715571857E-005        1.11200381291433        17.5751580533881   1.49018149696827E-005    1.1773500295348E-005        17.5751580533881      0.0507229621601823       -4500.49627685547       -4280.74687619263   1.83989642634581E-005     0.00111333079491569        299.536511071343        301837.970834158      0.0694669434060348                    1007      0.0957669415702118        2308657.80277301        29.9275681000954   6.20856486114005E-005       0.591907144217822 
                    7.9                    0.15   4.50150050016672E-005        1.11201040500122        17.9745946351946   1.52404427376696E-005   1.20410645537932E-005        17.9745946351946      0.0518757601371262       -4500.49627685547       -4279.06521700676   1.83988800343622E-005    0.000927258795765792        299.534216605349        301840.312864835      0.0700469254182171                    1007       0.096346923582394        2288129.85262296        30.6077423727653   6.26040039291935E-005       0.492981572682083 
                    7.9                    0.15   4.60153384461487E-005        1.11201699708811         18.374031217001   1.55790705056564E-005   1.23086288122383E-005         18.374031217001        0.05302855811407       -4500.49627685547       -4277.38355782089   1.83987958052664E-005    0.000741186796615891        299.531922139355        301842.654895512      0.0706269074303993                    1007      0.0969269055945762        2267601.90247291        31.2879166454353   6.31223592469865E-005       0.394056001146345 
                    7.9                    0.15   4.70156718906302E-005          1.112023589175        18.7734677988075   1.59176982736433E-005   1.25761930706835E-005        18.7734677988075      0.0541813560910139       -4500.49627685547       -4275.70189863501   1.83987115761705E-005     0.00055511479746599        299.529627673361        301844.996926189      0.0712068894425815                    1007      0.0975068876067585        2247073.95232287        31.9680909181053   6.36407145647795E-005       0.295130429610607 
                    7.9                    0.15   4.80160053351117E-005        1.11203018126189         19.172904380614   1.62563260416301E-005   1.28437573291287E-005         19.172904380614      0.0553341540679577       -4500.49627685547       -4274.02023944914   1.83986273470746E-005    0.000369042798316087        299.527333207367        301847.338956866      0.0717868714547638                    1007      0.0980868696189407        2226546.00217282        32.6482651907753   6.41590698825726E-005       0.196204858074867 
                    7.9                    0.15   4.90163387795932E-005        1.11203677334878        19.5723409624205    1.6594953809617E-005   1.31113215875738E-005        19.5723409624205      0.0564869520449016       -4500.49627685547       -4272.33858026326   1.83985431179788E-005    0.000182970799166186        299.525038741373        301849.680987543       0.072366853466946                    1007      0.0986668516311229        2206018.05202278        33.3284394634453   6.46774252003656E-005      0.0972792865391286 
                    7.9                    0.15   5.00166722240747E-005        1.11204341708594        19.9669762177577   1.69294949421766E-005     1.338044387978E-005        19.9669762177577      0.0576258985604493       -4500.49627685547       -4270.63885502064   1.83984582299439E-005                       0        299.522742697995        301851.981500187      0.0729598216295818                    1007      0.0992598197937587         2185441.4639106        33.9969749932288    6.5207386810451E-005   2.47377128216842E-006 
                    7.9                    0.15   5.10170056685562E-005        1.11205310818956        20.0783332112122   1.70229245843583E-005   1.37414901639515E-005        20.0783332112122      0.0579476088530577       -4500.49627685547       -4267.87323242883    1.8398334464505E-005                       0        299.520353588917        301851.832448892      0.0743189726695088                    1007       0.100618970833686        2161995.23603068        33.9788246922312   6.64221196662612E-005   2.42837656180156E-006 
                    7.9                    0.15   5.20173391130377E-005        1.11206279929318        20.1896902046666   1.71163542265401E-005   1.41025364481229E-005        20.1896902046666      0.0582693191456661       -4500.49627685547       -4265.10760983703   1.83982106990662E-005                       0        299.517964479839        301851.683397597       0.075678123709436                    1007       0.101978121873613        2138549.00815076        33.9606743912335   6.76368525220715E-005   2.38298184143471E-006 
                    7.9                    0.15   5.30176725575192E-005         1.1120724903968        20.3010471981211   1.72097838687218E-005   1.44635827322944E-005        20.3010471981211      0.0585910294382745       -4500.49627685547       -4262.34198724522   1.83980869336273E-005                       0         299.51557537076        301851.534346302       0.077037274749363                    1007        0.10333727291354        2115102.78027083        33.9425240902358   6.88515853778818E-005   2.33758712106785E-006 
                    7.9                    0.15   5.40180060020007E-005        1.11208218150041        20.4124041915756   1.73032135109036E-005   1.48246290164658E-005        20.4124041915756      0.0589127397308829       -4500.49627685547       -4259.57636465341   1.83979631681884E-005                       0        299.513186261682        301851.385295007      0.0783964257892901                    1007       0.104696423953467        2091656.55239091        33.9243737892382    7.0066318233692E-005     2.292192400701E-006 
                    7.9                    0.15   5.50183394464821E-005        1.11209187260403        20.5237611850301   1.73966431530853E-005   1.51856753006372E-005        20.5237611850301      0.0592344500234913       -4500.49627685547       -4256.81074206161   1.83978394027496E-005                       0        299.510797152604        301851.236243712      0.0797555768292172                    1007       0.106055574993394        2068210.32451099        33.9062234882405   7.12810510895023E-005   2.24679768033414E-006 