VARIABLES = "X"
 "Y"
 "Z"
 "RHO"
 "U"
 "V"
 "W"
 "VelocityMagnitude"
 "Mach"
 "P"
 "P_tot"
 "Vislam"
 "SkinFrictionCoefficient"
 "T"
 "H0"
 "COND_TURB"
 "CP"
 "COND_eff"
 "D"
 "K"
 "VIS_T"
 "YPLUS"
ZONE
DT=(DOUBLE,DOUBLE,DOUBLE,DOUBLE,DOUBLE,DOUBLE,DOUBLE,DOUBLE,DOUBLE,DOUBLE,DOUBLE,DOUBLE,DOUBLE,DOUBLE,DOUBLE,DOUBLE,DOUBLE,DOUBLE,DOUBLE,DOUBLE,DOUBLE,DOUBLE)
                    7.9                    0.15                       0        1.11171376407146                       0                       0                       0                       0                       0       -4500.49627685547        -4354.7395324707   1.84026703209383E-005     0.00930046354187653        299.637466812134        301734.922265625      0.0439477905631065                    1007      0.0702477887272835            3211883.3125                       0   3.92780644233426E-005        4.94462531208992 
                    7.9                    0.15    0.000233488992661775        1.11323659517935        32.8375207670032   2.75016057245405E-005   8.45468107086548E-005        32.8375207670032      0.0948219416581913       -4500.49626085494       -3897.96003015484   1.83832271083444E-005                       0        299.222212972627        301862.194799549       0.363466972019642                    1007       0.389766969579753        373907.824629893        34.2894291362379    0.000324846349933307                       0 
                    7.9                    0.15    0.000466977985323549        1.11390156067105        38.4389119416327   3.13444334990303E-005    0.000190272089150201        38.4389119416327       0.111029684089518       -4500.49578857422        -3674.6414217841   1.83747500853537E-005                       0        299.046439286263        301881.415063829       0.773421385395443                    1007       0.799721396463594        178940.771433059        34.9121471709549    0.000691240563196346                       0 
                    7.9                    0.15    0.000700466977985324        1.11432391282319        41.6027311612208   3.28163438230918E-005    0.000305634101104036        41.6027311612208       0.120191108468689       -4500.49530029297       -3532.26405929279   1.83693697089014E-005                       0        298.933820954813        301893.914711493        1.18708360134567                    1007        1.21338355480636        118188.605767268        35.1345772243198     0.00106094858026873                       0 
                    7.9                    0.15    0.000933955970647098        1.11464214568118         43.837298403492   3.33485906793527E-005      0.0004273421173037         43.837298403492       0.126664884898195       -4500.49509953396       -3424.86230214327   1.83653178309435E-005                       0        298.848794959137        301903.347899402        1.60084877058194                    1007        1.62714872404263        87975.7495518256        35.2488899453564      0.0014307486453971                       0 
                    7.9                    0.15     0.00116744496330887        1.11490007444661        45.5683118462398   3.33793412105687E-005    0.000553981110355757        45.5683118462398       0.131681722669102       -4500.49476238962       -3337.75044622963   1.83620355808539E-005                       0        298.779835542289        301910.991098426        2.01381236829941                    1007         2.0401123217601        69928.8639108025        35.3155648774153     0.00179983228247754                       0 
                    7.9                    0.15     0.00140093395597065        1.11511533578337        46.9599524433611   3.30907738221963E-005    0.000685093683811058        46.9599524433611       0.135716360935791       -4500.49404805393       -3265.02725308867   1.83592971587144E-005                       0        298.722268017944        301917.356259599        2.42541833073476                    1007        2.45171828419545         58302.525931021        35.3548214784402     0.00216770259916411                       0 
                    7.9                    0.15     0.00163442294863242        1.11530414786073        48.1496348089552   3.26284009284858E-005    0.000819587275415077        48.1496348089552       0.139166352567731       -4500.49383544922       -3201.20207437506   1.83568953207171E-005                       0        298.671781146383         301922.93496918        2.83559848920958                    1007        2.86189844267027        49822.8600856404        35.3795193803013      0.0025342985413891                       0 
                    7.9                    0.15      0.0018679119412942        1.11547097732807        49.1757483481589   3.20401350903937E-005    0.000957396378329781        49.1757483481589       0.142142731940776       -4500.49332363695       -3144.79370856079   1.83547738842227E-005                       0        298.627171910628        301927.855764744        3.24404553531203                    1007        3.27034561074666        43537.5123405591        35.3933111614552     0.00289934555757921                       0 
                    7.9                    0.15     0.00210140093395597        1.11562032293556        50.0755021858038   3.13684689474391E-005     0.00109827940947417        50.0755021858038       0.144753169504756       -4500.49280537494       -3094.26846414976   1.83528744517588E-005                       0        298.587226036688         301932.26207385        3.65057232617887                    1007        3.67687254418694        38722.5045701498        35.3991801836452      0.0032626764940486                       0 
                    7.9                    0.15     0.00233488992661774         1.1157567871129        50.8837839022649   3.06468616007474E-005     0.00124176847378541        50.8837839022649       0.147098655963865       -4500.49232930066       -3048.09728301683   1.83511404927319E-005                       0        298.550742675093        301936.269105642        4.05522631371125                    1007        4.08152672384074        34848.8134569664        35.3995561562054     0.00362433355692723                       0 
                    7.9                    0.15     0.00256837891927952        1.11588250219165        51.6173666567046   2.98924215103506E-005     0.00138767786610554        51.6173666567046       0.149227761486891       -4500.49188919044       -3005.54455326867   1.83495427853479E-005                       0        298.517115884729        301939.972682666        4.45794653302946                    1007        4.48424673422184        31670.9023964815        35.3955613025285     0.00398426220586119                       0 
                    7.9                    0.15     0.00280186791194129        1.11599783713424        52.2796319193129   2.91157868232984E-005     0.00153624112139369        52.2796319193129       0.151150218436816       -4500.49148490483       -2966.51074352203   1.83480773299325E-005                       0        298.486288034527        301943.362432894        4.85829519800023                    1007        4.88459519582706        29090.4543550559        35.3874676043786     0.00434207125449835                       0 
                    7.9                    0.15     0.00303535690460307        1.11610559813428        52.8912183957442   2.83302831673044E-005     0.00168696174987917        52.8912183957442       0.152925829072994       -4500.49082004131       -2930.02094243881   1.83467076882108E-005                       0        298.457485354443        301946.521640309        5.25651464179362                    1007        5.28281459525431        26893.5490032697        35.3764876070411     0.00469797729018115                       0 
                    7.9                    0.15     0.00326884589726484         1.1162073193364        53.4625616821994   2.75417818326381E-005     0.00183955590609758        53.4625616821994       0.154584811346536       -4500.49026237196       -2895.57416120353   1.83454150158538E-005                       0        298.430297599827        301949.498200669         5.6527508244504                    1007        5.67905077791109        24981.5155820747        35.3632092086049     0.00505211089023036                       0 
                    7.9                    0.15     0.00350233488992662        1.11630426074731        54.0021465163593   2.67526862838085E-005     0.00199371281350647        54.0021465163593       0.156151745818045       -4500.48991710478       -2862.75043463506    1.8344183524895E-005                       0         298.40438854191         301952.33116862        6.04728610066957                    1007        6.07358605413027        23285.3279213156        35.3481198992524     0.00540472443768607                       0 
                    7.9                    0.15     0.00373582388258839        1.11639360577313        54.4923738687605    2.5970352721798E-005      0.0021506236468669        54.4923738687605         0.1575756145592       -4500.48929366828       -2832.48897175013   1.83430495958218E-005                       0        298.380522613375         301954.94461443        6.43854007797943                    1007        6.46484003144012        21893.3868191438        35.3301881450928     0.00575440518146435                       0 
                    7.9                    0.15     0.00396931287525017        1.11647977046514        54.9622816390317   2.51942769219232E-005     0.00230882268356316        54.9622816390317       0.158940573217224       -4500.48869352722       -2803.29903728579   1.83419558436202E-005                       0        298.357503928815        301957.460405771        6.82811471546048                    1007        6.85441466892118        20614.8840809625        35.3110611906151     0.00610258512542298                       0 
                    7.9                    0.15     0.00420280186791194        1.11656209459318        55.4076471640166   2.44256197589482E-005     0.00246858741604119        55.4076471640166       0.160234379257983       -4500.48812151767       -2775.40357604052    1.8340910636376E-005                       0        298.335508755641        301959.858269795        7.21566418775533                    1007        7.24196414121602        19473.3901664476        35.2904977374438     0.00644895520130984                       0 
                    7.9                    0.15     0.00443629086057372        1.11663971687314         55.823115922823   2.36713895609834E-005     0.00263051489735647         55.823115922823       0.161441507011123       -4500.48758466766       -2749.10888691112     1.833992530025E-005                       0        298.314785690431         301962.12127007        7.60016598269379                    1007        7.62646612727097        18483.2310254077        35.2681289803001     0.00679260138367365                       0 
                    7.9                    0.15     0.00466977985323549        1.11671573450459          56.22838824345   2.29219803987794E-005     0.00279318624706395          56.22838824345       0.162619072456125       -4500.48705980576       -2723.36031255963   1.83389603779879E-005                       0        298.294496497626        301964.338286734        7.98363081735502                    1007        8.00993121821242        17544.6825833908        35.2451492030031     0.00713532076577754                       0 
                    7.9                    0.15     0.00490326884589726        1.11678660171543        56.6018736834227    2.2193706014154E-005     0.00295847395787416        56.6018736834227       0.163704457016371       -4500.48657320911        -2699.3389938133   1.83380610394404E-005                       0        298.275573259362        301966.407312654        8.36311569757565                    1007        8.38941571156236        16752.2106128138        35.2201880454382     0.00747448261657554                       0 
                    7.9                    0.15     0.00513675783855904        1.11685680028444        56.9712312921963   2.14680816364048E-005     0.00312410693143852        56.9712312921963       0.164777870916581       -4500.48609157873       -2675.54211543831   1.83371702126891E-005                       0        298.256827683265        301968.457131565        8.74208629829331                    1007        8.76838584193785        15978.7054768913        35.1949738035622     0.00781318477731619                       0 
                    7.9                    0.15     0.00537024683122081        1.11692248478849        57.3129457527955   2.07660420501279E-005     0.00329232511012475        57.3129457527955       0.165771108769364       -4500.48554918123       -2653.26890547991   1.83363362468173E-005                       0        298.239292023324        301970.362304017        9.11682951069857                    1007        9.14312917238773        15320.6447720858        35.1679688638892     0.00814810936033966                       0 
                    7.9                    0.15     0.00560373582388259        1.11698741768764        57.6500642276027   2.00678166089197E-005     0.00346097900389842        57.6500642276027       0.166751016376485        -4500.4850027894       -2631.24917450142   1.83355117524138E-005                       0        298.221957481915        301972.243440163        9.49087301680162                    1007         9.5171729062302        14681.7755221402        35.1406708712353     0.00848240869341733                       0 
                    7.9                    0.15     0.00583722481654436        1.11704927747207        57.9683922248585    1.9389271524357E-005     0.00363162638956861        57.9683922248585       0.167676419747046       -4500.48447973101       -2610.27948471971   1.83347270032736E-005                       0        298.205447939427        301974.032761997        9.86142214295266                    1007        9.88772210833428        14114.2832657262         35.112099673988     0.00881358482798806                       0 
                    7.9                    0.15     0.00607071380920614        1.11710946612183        58.2765128402812    1.8721265220492E-005     0.00380336468873996        58.2765128402812       0.168572215268513       -4500.48396655466       -2589.88039759552   1.83339638498928E-005                       0        298.189386407342        301975.772224654        10.2300778857469                    1007        10.2563778511286        13585.5612974679        35.0828433429227     0.00914306869613019                       0 
                    7.9                    0.15     0.00630420280186791        1.11716859214478        58.5783470489926   1.80611448627571E-005     0.00397585667627871        58.5783470489926       0.169449773356101       -4500.48344709919       -2569.83727064545   1.83332140308543E-005                       0        298.173607395031        301977.480166844        10.5973160559666                    1007         10.623615977584         13078.581523403        35.0531368997583     0.00947128556079986                       0 
                    7.9                    0.15     0.00653769179452969         1.1172243616742        58.8603454244871   1.74255865045943E-005     0.00415074331010354        58.8603454244871       0.170269785995163       -4500.48288858576        -2550.9177213222   1.83325062716995E-005                       0        298.158719521438        301979.088685519         10.960091981445                    1007        10.9863917212546        12640.2007956958        35.0220237747131     0.00979551412842559                       0 
                    7.9                    0.15     0.00677118078719146        1.11728013120361        59.1423416065307   1.67899214854404E-005     0.00432563564827914        59.1423416065307       0.171089792114968       -4500.48233007233       -2531.99842834662   1.83317985352821E-005                       0        298.143832029315        301980.697204195        11.3228713401509                    1007        11.3491708862318        12201.8254268754        34.9909150842535      0.0101197457694158                       0 
                    7.9                    0.15     0.00700466977985323        1.11733346025966        59.4097710356465   1.61752934305569E-005     0.00450251730144813        59.4097710356465       0.171867533398838       -4500.48174706819       -2513.91494087355   1.83311221314568E-005                       0         298.12960648559        301982.237697289        11.6816952315486                    1007        11.7079949144394        11809.3469876404        34.9587138462835      0.0104404424383061                       0 
                    7.9                    0.15     0.00723815877251501          1.117385280563        59.6681913424571   1.55734908055026E-005     0.00468063822039721        59.6681913424571       0.172619134923526       -4500.48115502688       -2496.34859017698    1.8330465112165E-005                       0        298.115790789792        301983.736135517         12.038079932354                    1007         12.064379949031        11445.2511808853        34.9258445866923      0.0107589592209184                       0 
                    7.9                    0.15     0.00747164776517678        1.11743710086634        59.9266139380861   1.49718023106646E-005     0.00485875323708947        59.9266139380861       0.173370743153736       -4500.48055688206       -2478.78197397748   1.83298080928733E-005                       0        298.101974712524        301985.234573745        12.3944605919644                    1007        12.4207609424276        11081.1505157318        34.8929706540968      0.0110774723946558                       0 
                    7.9                    0.15     0.00770513675783856        1.11748611358471         60.168827796593   1.43966381260456E-005     0.00503938552921734         60.168827796593       0.174075313113034       -4500.47999602193       -2462.15735020898   1.83291866918741E-005                       0        298.088904204958        301986.639608495        12.7455615208948                    1007        12.7718619511926        10763.6119826485         34.858815633579      0.0113912667257487                       0 
                    7.9                    0.15     0.00793862575050033        1.11753424219341        60.4059437833493   1.38296910533339E-005     0.00522081522997571        60.4059437833493       0.174765088775105       -4500.47944077946       -2445.82913494304   1.83285764881856E-005                       0         298.07606808189        301988.015280025        13.0950074071932                    1007         13.121307837491        10460.7155781338        34.8242629323549      0.0117035818333812                       0 
                    7.9                    0.15     0.00817211474316211        1.11758237229223        60.6430621066077   1.32628653072154E-005     0.00540223887713735        60.6430621066077       0.175454871328964        -4500.4788916405        -2429.5006450189   1.83279662844971E-005                       0        298.063231958821        301989.390951555        13.4444485489618                    1007        13.4707489792597        10157.8147668808         34.789705176657       0.012015892703496                       0 
                    7.9                    0.15     0.00840560373582388        1.11762834679807        60.8676739368489   1.27190101754565E-005     0.00558586374665033        60.8676739368489       0.176108355151274       -4500.47832492553       -2413.90791477672   1.83273835980052E-005                       0        298.050974995304        301990.708551377        13.7890124240466                    1007        13.8153128543444        9887.68948742774         34.754097981839       0.012323844539111                       0 
                    7.9                    0.15     0.00863909272848566        1.11767315397725        61.0855130772277   1.21875944099363E-005     0.00577068065267452        61.0855130772277       0.176742181980147       -4500.47774869254       -2398.71362334006   1.83268158130078E-005                       0        298.039031666314        301991.994703401        14.1309350939125                    1007        14.1572355242103        9635.31326933409        34.7179224801679      0.0126294358097999                       0 
                    7.9                    0.15     0.00887258172114743        1.11771796115642        61.3033498811045   1.16560504625066E-005     0.00595550371124847        61.3033498811045       0.177376001917232       -4500.47717245956       -2383.51961571688   1.83262480734851E-005                       0        298.027088718793          301993.2804648        14.4728633308522                    1007          14.49916376115        9382.94105514668         34.681752319073      0.0129350320630645                       0 
                    7.9                    0.15      0.0091060707138092        1.11776196581685        61.5166613591371   1.11338540331058E-005     0.00614122510330225        61.5166614930961       0.177996687622287        -4500.4765912847       -2368.59487439942   1.83256903981329E-005                       0        298.015358703071        301994.541570324        14.8126802129063                    1007        14.8389806097144        9141.39669213387        34.6451720952987      0.0132387412878999                       0 
                    7.9                    0.15     0.00933955970647098        1.11780367725907        61.7170349241344    1.0638002096698E-005      0.0063295310877345        61.7170355748437       0.178579822223897       -4500.47599598829       -2354.44037956548   1.83251616113552E-005                       0        298.004238235565        301995.731104823        15.1464797514629                    1007        15.1727800190834        8930.80463702939        34.6074353675774      0.0135370725177085                       0 
                    7.9                    0.15     0.00957304869913275        1.11784538721117        61.9174059618947   1.01420155095996E-005     0.00651784324799959        61.9174071770381        0.17916294956119       -4500.47540679541       -2340.28617770029   1.83246328245774E-005                       0        297.993117768059        301996.921029947        15.4802858226885                    1007        15.5065859492005        8720.21624403427        34.5697043142182      0.0138354095682833                       0 
                    7.9                    0.15     0.00980653769179453        1.11788709865339        62.1177795268919   9.64616357319185E-006     0.00670614923243184        62.1177812587857       0.179746084162799       -4500.47481149901       -2326.13168286635   1.83241040377997E-005                       0        297.981997300553        301998.110564446         15.814085361245                    1007        15.8403853585694        8509.62418892979        34.5319675864968       0.014133740798092                       0 
                    7.9                    0.15      0.0100400266844563        1.11792723073594        62.3091525987757   9.17041967088827E-006     0.00689649618575245        62.3091542841472       0.180303087388244       -4500.47420927749       -2312.51928019603    1.8323595645137E-005                       0        297.971303808408        301999.251592227        16.1429077663597                    1007        16.1692076404843        8318.69898240039        34.4933704158062      0.0144276237067177                       0 
                    7.9                    0.15      0.0102735156771181        1.11796616253936        62.4936854908993   8.70995743883986E-006     0.00708839423120824        62.4936867016736       0.180840231333969       -4500.47360179305       -2299.31885582499   1.83231027515599E-005                       0        297.960934808287        302000.355755955        16.4679476578941                    1007        16.4942474133694        8142.72015468283        34.4541193271014      0.0147181259876225                       0 
                    7.9                    0.15      0.0105070046697799        1.11800509285267        62.6782159034697   8.24935451364543E-006     0.00728029832443999        62.6782165919631       0.181377367829114        -4500.4729943086       -2286.11873357797   1.83226098579828E-005                       0        297.950566189635        302001.459919682        16.7929951430603                    1007         16.819294815649        7966.74465338129        34.4148743419122      0.0150086350788236                       0 
                    7.9                    0.15      0.0107404936624416        1.11804402465609        62.8627487955934   7.78889228159702E-006     0.00747219636989578        62.8627490094895        0.18191451177484       -4500.47238682416       -2272.91830920693   1.83221169644057E-005                       0        297.940197189514        302002.564083409        17.1180350345947                    1007        17.1443345885341        7790.76582566374        34.3756232532075      0.0152991373597284                       0 
                    7.9                    0.15      0.0109739826551034        1.11808152182512        63.0393817688309   7.34762085235693E-006     0.00766612856913956        63.0393820083028       0.182428718529146       -4500.47180651309       -2260.19896967041   1.83216418934453E-005                       0        297.930209626609        302003.626703825        17.4378968284905                    1007        17.4641964486919        7630.56141388063        34.3355619628914      0.0155850117962956                       0 
                    7.9                    0.15      0.0112074716477652        1.11811784192677        63.2095331347525   6.92209480603455E-006     0.00786172972046552        63.2095338101746       0.182924106119628       -4500.47124849682       -2247.87434342499   1.83211814453189E-005                       0        297.920535019608        302004.655239405        17.7535101742668                    1007        17.7798100124433        7483.29935900005        34.2948359304726      0.0158670892483432                       0 
                    7.9                    0.15      0.0114409606404269        1.11815416202842         63.379681830386   6.49642254138584E-006     0.00805733659942531        63.3796829894421       0.183419486073265       -4500.47069048056       -2235.55003456238   1.83207210199298E-005                       0        297.910860412607        302005.683774985        18.0691324130561                    1007        18.0954324453658        7336.04034367025         34.254116430723      0.0161491746399157                       0 
                    7.9                    0.15      0.0116744496330887        1.11819048213006        63.5498331963077   6.07089649506345E-006     0.00825293775075127        63.5498347913139       0.183914873663747       -4500.47013246429       -2223.22540831696   1.83202605718034E-005                       0        297.901185805606        302006.712310566        18.3847457588324                    1007        18.4110460091172        7188.77828878967        34.2133903983042      0.0164312520919633                       0 
                    7.9                    0.15      0.0119079386257505        1.11822639278377         63.717708615149   5.65133441078105E-006     0.00844920535126612        63.7177105004277       0.184403652206889       -4500.46956448932        -2211.0408916636   1.83198054102446E-005                       0        297.891620790545        302007.728002416        18.6985965778274                    1007        18.7248969732484        7045.67111486906        34.1724128309253      0.0167117543218392                       0 
                    7.9                    0.15      0.0121414276184123         1.1182603618672        63.8747916699078   5.26005297074897E-006     0.00864863320201318        63.8747931546668       0.184861091161446       -4500.46894929095        -2199.5207638012   1.83193753171786E-005                       0        297.882575451944        302008.682790293        19.0040896318748                    1007         19.030389827036        6922.26606338713        34.1302425043237      0.0169847869706619                       0 
                    7.9                    0.15       0.012374916611074        1.11829433095063        64.0318747246666   4.86877153071691E-006     0.00884806105276025        64.0318758089058       0.185318530116003       -4500.46833409257        -2188.0006359388   1.83189452241126E-005                       0        297.873530113343         302009.63757817        19.3095826859223                    1007        19.3358826808236        6798.86101190521         34.088072177722      0.0172578196194846                       0 
                    7.9                    0.15      0.0126084056037358        1.11832829705382        64.1889551091373   4.47733894119192E-006     0.00904749403742301         64.188955745173       0.185775961061186        -4500.4677188942       -2176.48083461449   1.83185151310466E-005                       0        297.864485156212        302010.591975422         19.615086111178                    1007        19.6413858819775         6675.4587375229        34.0459088606267      0.0175308615116839                       0 
                    7.9                    0.15      0.0128418945963976        1.11836226613725        64.3460381638962   4.08605750115985E-006     0.00924692188817008        64.3460383994121       0.186233400015743       -4500.46710369583       -2164.96070675209   1.83180850379806E-005                       0        297.855439817611          302011.5467633        19.9205791652255                    1007        19.9468787357651        6552.05368604097         34.003738534025      0.0178038941605066                       0 