VARIABLES = "X"
 "Y"
 "Z"
 "RHO"
 "U"
 "V"
 "W"
 "VelocityMagnitude"
 "Mach"
 "P"
 "P_tot"
 "Vislam"
 "SkinFrictionCoefficient"
 "T"
 "H0"
 "COND_TURB"
 "CP"
 "COND_eff"
 "D"
 "K"
 "VIS_T"
 "YPLUS"
ZONE
DT=(DOUBLE,DOUBLE,DOUBLE,DOUBLE,DOUBLE,DOUBLE,DOUBLE,DOUBLE,DOUBLE,DOUBLE,DOUBLE,DOUBLE,DOUBLE,DOUBLE,DOUBLE,DOUBLE,DOUBLE,DOUBLE,DOUBLE,DOUBLE,DOUBLE,DOUBLE)
                      0                    0.15                       0        1.11799907684326                       0                       0                       0                       0                       0       -4010.57885742188                       0   1.83952706720447E-005      0.0365194119513035        298.016998291016            301838.90625      0.0724164098501205                    1007      0.0987164080142975               7064581.5                       0   6.47217166260816E-005        8.21011638641357 
    0.00400200100050025                    0.15                       0        1.11784004676098                       0                       0                       0                       0                       0       -4020.19610977364       -946.143956377606   1.83958686027071E-005      0.0349316462061893        298.467881294773        301773.367214857      0.0711946385600914                    1007      0.0974946367242683        8548052.94397199                       0   6.36297655123842E-005        8.06386800764083 
     0.0080040020010005                    0.15                       0        1.11768101667869                       0                       0                       0                       0                       0        -4029.8133621254       -1892.28791275521   1.83964665333694E-005      0.0333438804610751        298.918764298531        301707.828179715      0.0699728672700622                    1007      0.0962728654342392         10031524.387944                       0   6.25378143986868E-005        7.91761962886808 
     0.0120060030015008                    0.15                       0         1.1175219865964                       0                       0                       0                       0                       0       -4039.43061447716       -2838.43186913282   1.83970644640318E-005      0.0317561147159609        299.369647302289        301642.289144572      0.0687510959800331                    1007        0.09505109414421         11514995.831916                       0   6.14458632849894E-005        7.77137125009534 
      0.016008004002001                    0.15                       0         1.1173620805435                       0                       0                       0                       0                       0       -4049.56327467933       -3217.46388868262   1.83975970084402E-005      0.0299111280428164        299.529049711623        301627.212950225      0.0672961315470913                    1007      0.0935961297112682        11491581.2871436                       0    6.0145497641322E-005        7.59792905023182 
     0.0200100050025013                    0.15                       0        1.11720172878263                       0                       0                       0                       0                       0       -4059.95818270463       -3307.94021241578   1.83980962832686E-005      0.0279352632148555        299.540142095584        301637.813062781      0.0657225146837506                    1007      0.0920225128479275        10701438.8589294                       0   5.87390873249745E-005        7.41065019580827 
     0.0240120060030015                    0.15                       0        1.11704137702177                       0                       0                       0                       0                       0       -4070.35309072994       -3398.41653614894   1.83985955580969E-005      0.0259593983868946        299.551234479544        301648.413175338      0.0641488978204099                    1007      0.0904488959845869        9911296.43071534                       0   5.73326770086271E-005        7.22337134138472 
     0.0280140070035018                    0.15                       0        1.11692940073648                       0                       0                       0                       0                       0       -4077.88774294374       -3466.96043737201   1.83989033749636E-005       0.024434167357826        299.558099591177        301654.949771761      0.0629084281615909                    1007      0.0892084266891653        9300304.66783391                       0   5.62240152296477E-005        7.07632730029833 
      0.032016008004002                    0.15                       0        1.11691764851342                       0                       0                       0                       0                       0       -4079.49653183525       -3490.06485811265    1.8398814530207E-005      0.0238425571223597         299.55620666168        301653.067596298      0.0623581711726525                    1007      0.0886581708165095        9060476.33466733                       0    5.5732227343472E-005        7.01264153915146 
     0.0360180090045022                    0.15                       0        1.11690589629035                       0                       0                       0                       0                       0       -4081.10532072677       -3513.16927885329   1.83987256854504E-005      0.0232509468868934        299.554313732183        301651.185420835      0.0618079141837141                    1007      0.0881079149438537        8820648.00150074                       0   5.52404394572962E-005        6.94895577800459 
     0.0400200100050025                    0.15                       0        1.11689414406729                       0                       0                       0                       0                       0       -4082.71410961829       -3536.27369959394   1.83986368406939E-005      0.0226593366514271        299.552420802687        301649.303245373      0.0612576571947756                    1007      0.0875576590711978        8580819.66833416                       0   5.47486515711205E-005        6.88527001685772 
     0.0440220110055028                    0.15                       0         1.1168722597106                       0                       0                       0                       0                       0        -4084.2860246041       -3550.15581191475   1.83986821297992E-005       0.022307692718072        299.553374755615        301650.262240495      0.0609089959060597                    1007      0.0872089977955269        8437046.51875938                       0   5.44370372442389E-005        6.84560666196402 
      0.048024012006003                    0.15                       0        1.11685025554827                       0                       0                       0                       0                       0       -4085.85750358089       -3563.92887666978   1.83987290049469E-005         0.0219588862241        299.554362371005         301651.25483054      0.0605627183502856                    1007      0.0868627202397528        8294409.15682841                       0   5.41275533479571E-005        6.80622735579292 
     0.0520260130065033                    0.15                       0        1.11682825138594                       0                       0                       0                       0                       0       -4087.42898255768       -3577.70194142481   1.83987758800945E-005       0.021610079730128        299.555349986395        301652.247420585      0.0602164407945114                    1007      0.0865164426839787        8151771.79489744                       0   5.38180694516752E-005        6.76684804962181 
     0.0560280140070035                    0.15                       0        1.11680668911497                       0                       0                       0                       0                       0       -4088.84008715784       -3589.13207323877   1.83988412090216E-005      0.0213198093059153        299.556730559494        301653.636302526      0.0599217918487624                    1007      0.0862217937382297        8032924.14032015                       0   5.35547285211266E-005        6.73347800084506 
     0.0600300150075038                    0.15                       0        1.11678536365246                       0                       0                       0                       0                       0       -4090.16524754076       -3599.30663329712   1.83989164272817E-005      0.0210609082113942        299.558321717622        301655.237556278      0.0596548105427448                    1007      0.0859548124322121        7926825.32891445                       0    5.3316115487599E-005        6.70332829769758 
      0.064032016008004                    0.15                       0        1.11676403818994                       0                       0                       0                       0                       0       -4091.49040792369       -3609.48119335547   1.83989916455419E-005      0.0208020071168731        299.559912875749         301656.83881003      0.0593878292367272                    1007      0.0856878311261945        7820726.51750875                       0   5.30775024540715E-005        6.67317859455011 
     0.0680340170085043                    0.15                       0        1.11674368810868                       0                       0                       0                       0                       0       -4092.73359861083       -3618.97088168108    1.8399066521661E-005      0.0205596139297642        299.561495423615        301658.431246873      0.0591360213455854                    1007      0.0854360228847002        7721405.76913456                       0   5.28524508664687E-005         6.6447631417065 
     0.0720360180090045                    0.15                       0        1.11672547037689                       0                       0                       0                       0                       0       -4093.79758959069         -3626.963323825   1.83991406498015E-005      0.0203533098381152        299.563059147982        301660.004408454      0.0589173851220711                    1007      0.0852173855449033        7636903.02026012                       0   5.26570469079887E-005        6.62013905521868 
     0.0760380190095048                    0.15                       0        1.11670725264509                       0                       0                       0                       0                       0       -4094.86158057056       -3634.95576596892   1.83992147779419E-005      0.0201470057464663        299.564622872349        301661.577570035      0.0586987488985568                    1007      0.0849987482051064        7552400.27138569                       0   5.24616429495087E-005        6.59551496873085 
      0.080040020010005                    0.15                       0        1.11668903491329                       0                       0                       0                       0                       0       -4095.92557155042       -3642.94820811285   1.83992889060824E-005      0.0199407016548173        299.566186596716        301663.150731616      0.0584801126750425                    1007      0.0847801108653096        7467897.52251125                       0   5.22662389910287E-005        6.57089088224303 
     0.0840420210105053                    0.15                       0        1.11667336387119                       0                       0                       0                       0                       0       -4096.81644679762       -3649.51399943136   1.83993566463761E-005      0.0197693235154686        299.567607427371        301664.577570035      0.0582945507118528                    1007      0.0845945499662222        7397775.26763381                       0   5.21003937286497E-005        6.55001984887746 
     0.0880440220110055                    0.15                       0        1.11665775377551                       0                       0                       0                       0                       0        -4097.7031791042       -3656.04564867883   1.83994242337983E-005      0.0195987812108758        299.569024838347        301666.000906703      0.0581097802694229                    1007      0.0844097806400749        7327997.16133066                       0   5.19352558538698E-005         6.5292386321678 
     0.0920460230115058                    0.15                       0        1.11664214367983                       0                       0                       0                       0                       0       -4098.58991141078       -3662.57729792631   1.83994918212205E-005      0.0194282389062831        299.570442249323        301667.424243372       0.057925009826993                    1007      0.0842250113139276        7258219.05502751                       0   5.17701179790899E-005        6.50845741545814 
      0.096048024012006                    0.15                       0         1.1166278354641                       0                       0                       0                       0                       0       -4099.39745141125       -3668.44378793401   1.83995541809817E-005      0.0192742620246776        299.571754413584        301668.751782141      0.0577562959038239                    1007      0.0840562970795412        7195265.20785392                       0    5.1619331078991E-005        6.48949234410487 
      0.100050025012506                    0.15                       0        1.11661426146785                       0                       0                       0                       0                       0       -4100.16032943229       -3673.93514897097   1.83996135925061E-005       0.019129627522616        299.573007221995        301670.025293897      0.0575966373544415                    1007      0.0838966374138762         7136160.0290145                       0   5.14766376789734E-005        6.47155152182987 
      0.104052026013007                    0.15                       0        1.11660068747161                       0                       0                       0                       0                       0       -4100.92320745334       -3679.42651000793   1.83996730040304E-005      0.0189849930205543        299.574260030406        301671.298805653      0.0574369788050592                    1007      0.0837369777482113        7077054.85017508                       0   5.13339442789558E-005        6.45361069955487 
      0.108054027013507                    0.15                       0        1.11658758840423                       0                       0                       0                       0                       0       -4101.65827640383       -3684.68343925381   1.83997306038449E-005      0.0188462728668953        299.575474153703        301672.527044772      0.0572831657933646                    1007       0.083583164294849        7020385.15807904                       0   5.11964748618137E-005         6.4363295966354 
      0.112056028014007                    0.15                       0        1.11657558613386                       0                       0                       0                       0                       0       -4102.32912330188       -3689.39897353462   1.83997840197109E-005       0.018721211263691        299.576598937897        301673.650731616      0.0571428524211921                    1007      0.0834428520389591        6969339.96023011                       0   5.10710696703179E-005        6.42057204449278 
      0.116058029014507                    0.15                       0         1.1165635838635                       0                       0                       0                       0                       0       -4102.99997019994       -3694.11450781543   1.83998374355768E-005      0.0185961496604867        299.577723722091        301674.774418459      0.0570025390490196                    1007      0.0833025397830692        6918294.76238119                       0   5.09456644788221E-005        6.40481449235017 
      0.120060030015008                    0.15                       0        1.11655158159314                       0                       0                       0                       0                       0         -4103.670817098       -3698.83004209624   1.83998908514427E-005      0.0184710880572823        299.578848506284        301675.898105303      0.0568622256768472                    1007      0.0831622275271793        6867249.56453227                       0   5.08202592873263E-005        6.38905694020755 
      0.124062031015508                    0.15                       0        1.11654082019667                       0                       0                       0                       0                       0       -4104.27347218531       -3702.96820492766   1.83999384818486E-005      0.0183607564457301        299.579849754589        301676.913362931      0.0567367155423547                    1007       0.083036717431822        6822266.71635818                       0   5.07080859689018E-005        6.37496850131571 
      0.128064032016008                    0.15                       0        1.11653010388384                       0                       0                       0                       0                       0       -4104.87364971548       -3707.08539059569   1.83999859020561E-005       0.018250960006885        299.580846514566        301677.924681091      0.0566117432417573                    1007      0.0829117451312245        6777504.12656329                       0   5.05963933932705E-005        6.36094070494682 
      0.132066033016508                    0.15                       0        1.11651938757102                       0                       0                       0                       0                       0       -4105.47382724565       -3711.20257626372   1.84000333222636E-005      0.0181411635680399        299.581843274543         301678.93599925      0.0564867709411598                    1007       0.082786772830627        6732741.53676839                       0   5.04847008176393E-005        6.34691290857793 
      0.136068034017009                    0.15                       0        1.11650932151237                       0                       0                       0                       0                       0       -4106.03928819879         -3715.022604564   1.84000776632014E-005       0.018039031790056        299.582782632771        301679.876782141      0.0563696157047455                    1007      0.0826696175942128        6691130.83891946                       0    5.0379994762829E-005        6.33376551151514 
      0.140070035017509                    0.15                       0        1.11649964110979                       0                       0                       0                       0                       0       -4106.58415926713       -3718.66639325522   1.84001201778701E-005      0.0179414458082744        299.583687946879        301680.775731616      0.0562570966526739                    1007      0.0825570985421412        6651389.48124062                       0   5.02794323094632E-005        6.32114026616847 
      0.144072036018009                    0.15                       0        1.11648996070721                       0                       0                       0                       0                       0       -4107.12903033548       -3722.31018194644   1.84001626925389E-005      0.0178438598264928        299.584593260986        301681.674681091      0.0561445776006023                    1007      0.0824445794900696        6611648.12356178                       0   5.01788698560974E-005         6.3085150208218 
      0.148074037018509                    0.15                       0        1.11648051896174                       0                       0                       0                       0                       0       -4107.66102338279        -3725.8428711426    1.8400204098889E-005      0.0177491691835661        299.585472011518        301682.551869685      0.0560350511661018                    1007      0.0823350527313067        6573096.52026013                       0   5.00809816174382E-005        6.29622655179633 
       0.15207603801901                    0.15                       0        1.11647166014314                       0                       0                       0                       0                       0       -4108.16156149364       -3729.10419662956   1.84002427981388E-005       0.017661550488992        299.586285879756        301683.375906703      0.0559328342860135                    1007      0.0822328347349358        6537450.92621311                       0   4.99896252250451E-005        6.28476066861289 
       0.15607803901951                    0.15                       0        1.11646280132454                       0                       0                       0                       0                       0       -4108.66209960449       -3732.36552211653   1.84002814973886E-005      0.0175739317944179        299.587099747994        301684.199943722      0.0558306174059252                    1007      0.0821306167385649        6501805.33216609                       0   4.98982688326521E-005        6.27329478542944 
       0.16008004002001                    0.15                       0        1.11645394250594                       0                       0                       0                       0                       0       -4109.16263771534       -3735.62684760349   1.84003201966384E-005      0.0174863130998439        299.587913616232         301685.02398074      0.0557284005258368                    1007      0.0820283987421939        6466159.73811906                       0    4.9806912440259E-005          6.261828902246 
       0.16408204102051                    0.15                       0        1.11644573066162                       0                       0                       0                       0                       0       -4109.62914416193       -3738.58844339162   1.84003552588193E-005      0.0174065820645427        299.588657747453        301685.767680715      0.0556344336318994                    1007      0.0819344317960763        6433753.04802401                       0   4.97229299451837E-005        6.25129125689554 
      0.168084042021011                    0.15                       0        1.11643755054283                       0                       0                       0                       0                       0       -4110.09398180536       -3741.53534140117   1.84003901426501E-005       0.017327237814635        299.589398458995        301686.507441221      0.0555408712906978                    1007      0.0818408694548748        6401505.18334167                       0   4.96393090422711E-005        6.24079912933724 
      0.172086043021511                    0.15                       0        1.11642937042404                       0                       0                       0                       0                       0       -4110.55881944879       -3744.48223941072    1.8400425026481E-005      0.0172478935647273        299.590139170537        301687.247201726      0.0554473089494963                    1007      0.0817473071136732        6369257.31865933                       0   4.95556881393585E-005        6.23030700177894 
      0.176088044022011                    0.15                       0        1.11642156439223                       0                       0                       0                       0                       0       -4111.00554036784       -3747.26752902819   1.84004582314546E-005      0.0171728427193429        299.590834815601        301687.952351176      0.0553582865388886                    1007      0.0816582847030655        6338770.92596298                       0   4.94761253699569E-005        6.22032530490251 
      0.180090045022511                    0.15                       0        1.11641399153117                       0                       0                       0                       0                       0       -4111.44096901967       -3749.95208712755   1.84004903899861E-005      0.0171004679797589        299.591502370448        301688.635927339      0.0552720938953177                    1007      0.0815720920594947        6309382.46973487                       0   4.93990920604674E-005        6.21066176265165 
      0.184092046023012                    0.15                       0        1.11640641867011                       0                       0                       0                       0                       0       -4111.87639767149       -3752.63664522691   1.84005225485176E-005      0.0170280932401749        299.592169925295        301689.319503502      0.0551859012517469                    1007      0.0814858994159238        6279994.01350675                       0    4.9322058750978E-005        6.20099822040079 
      0.188094047023512                    0.15                       0        1.11639897527547                       0                       0                       0                       0                       0        -4112.3050140793       -3755.25938323165   1.84005539472412E-005      0.0169573752661462        299.592824732679        301689.987415583      0.0551014788124548                    1007      0.0814014769766318        6251284.83541771                       0   4.92466070577796E-005        6.19153365807393 
      0.192096048024012                    0.15                       0        1.11639186678796                       0                       0                       0                       0                       0       -4112.71600839482       -3757.72220338685   1.84005833804734E-005       0.016890943056907        299.593446564591        301690.614807404      0.0550216355842313                    1007      0.0813216337484083        6224332.83191596                       0   4.91752467312744E-005        6.18258382225705 
      0.196098049024512                    0.15                       0        1.11638475830046                       0                       0                       0                       0                       0       -4113.12700271034       -3760.18502354204   1.84006128137057E-005      0.0168245108476679        299.594068396503        301691.242199225      0.0549417923560078                    1007      0.0812417905201847        6197380.82841421                       0   4.91038864047691E-005        6.17363398644016 
      0.200100050025012                    0.15                       0        1.11637764981295                       0                       0                       0                       0                       0       -4113.53799702586       -3762.64784369724   1.84006422469379E-005      0.0167580786384288        299.594690228415        301691.869591045      0.0548619491277843                    1007      0.0811619472919612        6170428.82491246                       0   4.90325260782639E-005        6.16468415062328 
      0.204102051025513                    0.15                       0        1.11637094493148                       0                       0                       0                       0                       0       -4113.92956658994       -3764.93225922043   1.84006696273237E-005      0.0166964681549794        299.595269009016        301692.452898324      0.0547873054804833                    1007      0.0810873046957176        6145452.37318659                       0   4.89658133961678E-005        6.15631846727998 
      0.208104052026013                    0.15                       0        1.11636426509649                       0                       0                       0                       0                       0       -4114.31993071731       -3767.20560353419   1.84006968803165E-005      0.0166351568921021        299.595845117994         301693.03346986      0.0547129845022112                    1007      0.0810129848337281        6120598.51775888                       0   4.88993891317211E-005        6.14798903453344 
      0.212106053026513                    0.15                       0         1.1163575852615                       0                       0                       0                       0                       0       -4114.71029484469       -3769.47894784795   1.84007241333093E-005      0.0165738456292248        299.596421226971        301693.614041396       0.054638663523939                    1007      0.0809386649717385        6095744.66233116                       0   4.88329648672745E-005         6.1396596017869 
      0.216108054027014                    0.15                       0        1.11635112130326                       0                       0                       0                       0                       0       -4115.09031346728       -3771.65356775067    1.8400750068695E-005      0.0165152264169122        299.596969703724        301694.166317534       0.054567271048737                    1007      0.0808672729382043        6071993.01450725                       0   4.87691586881986E-005        6.13165916521112 
      0.220110055027514                    0.15                       0        1.11634479867869                       0                       0                       0                       0                       0        -4115.4635589279        -3773.7635531633   1.84007751414484E-005      0.0164583696796931        299.597500089767        301694.700068784      0.0544977958531693                    1007      0.0807977977426366        6048962.97773887                       0   4.87070665594897E-005        6.12387412115596 