VARIABLES = "X"
 "Y"
 "Z"
 "RHO"
 "U"
 "V"
 "W"
 "VelocityMagnitude"
 "Mach"
 "P"
 "P_tot"
 "Vislam"
 "SkinFrictionCoefficient"
 "T"
 "H0"
 "COND_TURB"
 "CP"
 "COND_eff"
 "D"
 "K"
 "VIS_T"
 "YPLUS"
ZONE
DT=(DOUBLE,DOUBLE,DOUBLE,DOUBLE,DOUBLE,DOUBLE,DOUBLE,DOUBLE,DOUBLE,DOUBLE,DOUBLE,DOUBLE,DOUBLE,DOUBLE,DOUBLE,DOUBLE,DOUBLE,DOUBLE,DOUBLE,DOUBLE,DOUBLE,DOUBLE)
                    7.9                    0.15                       0        1.11177400350571                       0                       0                       0                       0                       0        -4495.9606262207         -4346.244921875   1.84025748012573E-005     0.00946855787187815        299.635451889038         301732.90546875      0.0442455898504704                    1007      0.0705455898307264           3277086.59375                       0   3.95442210447072E-005        4.97792508602142 
                    7.9                    0.15    0.000233488992661775        1.11332887149427        33.1845278384198   3.02259676596631E-008   3.74550031493988E-005        33.1845278384198      0.0958256554616578       -4495.96038818359       -3880.54535389828    1.8382724561049E-005                       0         299.21153684434        301862.999476194       0.364923042159531                    1007       0.391223042880963        381741.578440401        34.7164817922479    0.000326147703883038                       0 
                    7.9                    0.15    0.000466977985323549        1.11400743532763        38.8399874453923   3.50377825222108E-008   8.40224599797993E-005        38.8399874453923       0.112190850774691       -4495.96013793945       -3652.64644455142   1.83740753741545E-005                       0        299.032174744465        301882.594925009       0.774118519115538                    1007       0.800418503123612        182691.994081533        35.2915606176402    0.000691863627353637                       0 
                    7.9                    0.15    0.000700466977985324        1.11443923241134        42.0403988480908   3.74310869961466E-008    0.000134577292480902        42.0403988480908       0.121458936125463       -4495.96013793945       -3507.06997922961   1.83685754800419E-005                       0        298.917066889621        301895.377341663        1.18500143399268                    1007        1.21130141361316        120649.562582726         35.466979202971     0.00105908765255622                       0 
                    7.9                    0.15    0.000933955970647098        1.11476505575664        44.3041107844835   3.88689915745617E-008    0.000187704271008223        44.3041107844835       0.128017723912312       -4495.96003755995       -3397.07907583676   1.83644271379163E-005                       0        298.830000749116        301905.033103795        1.59431860191429                    1007        1.62061861646974        89781.8254932414        35.5354746370055     0.00142491237034112                       0 
                    7.9                    0.15     0.00116744496330887        1.11502955236884        46.0598115869396   3.97934301834937E-008    0.000242812736772668        46.0598115869396       0.133106611709163        -4495.9596496582       -3307.74606909576   1.83610609319456E-005                       0        298.759299007857         301912.86278606        2.00142516219541                    1007        2.02772512777087        71335.2526838464        35.5577755994393     0.00178876125789526                       0 
                    7.9                    0.15     0.00140093395597065        1.11525049689904         47.472824130753   4.03798188626123E-008    0.000299716589488605         47.472824130753       0.137203636212844        -4495.9596496582        -3233.0755383253   1.83582506598952E-005                       0        298.700223706586         301919.39317387        2.40585693883772                    1007        2.43215694420386        59445.6339612156        35.5543204697355     0.00215021969825759                       0 
                    7.9                    0.15     0.00163442294863242        1.11544454012919        48.6817137764477   4.07708859710805E-008    0.000357983791302024        48.6817137764477       0.140709726486753       -4495.95944235216       -3167.48087933635   1.83557829168092E-005                       0        298.648351052025        301925.108701664        2.80786833677418                    1007        2.83416839741899        50770.5614314737        35.5377590236819      0.0025095149721855                       0 
                    7.9                    0.15      0.0018679119412942        1.11561606536927        49.7251468891129   4.10060807441914E-008    0.000417597832658452        49.7251468891129       0.143736713661708       -4495.95916137695       -3109.45843239592    1.8353601639306E-005                       0        298.602458446307        301930.172782699        3.20719104627889                    1007        3.23349099973958        44337.8102756937        35.5118270494344     0.00286640699160041                       0 
                    7.9                    0.15     0.00210140093395597        1.11576984601735        50.6406511867783   4.11218127306355E-008    0.000478474196536332        50.6406511867783       0.146393180018866       -4495.95913462106       -3057.44819615863   1.83516469604793E-005                       0        298.561358043272        301934.683735241        3.60373700665006                    1007        3.63003696011076        39408.0870429614        35.4794761171545     0.00322081760257432                       0 
                    7.9                    0.15     0.00233488992661774        1.11591044285899        51.4634635184094   4.11521091242812E-008    0.000540434177691058        51.4634635184094       0.148781158974889       -4495.95890268744       -3009.89200746789   1.83498607054999E-005                       0        298.523774287733        301938.824842294        3.99771393957794                    1007          4.024013913207        35440.9363528231         35.442946560751     0.00357293206578215                       0 
                    7.9                    0.15     0.00256837891927952        1.11604002609401        52.2105326696032   4.11134023196591E-008    0.000603413371363126        52.2105326696032       0.150949688123766       -4495.95867652881       -2966.04050345649   1.83482146089973E-005                       0        298.489143114449        301942.627394633        4.38913743283136                    1007        4.41543762731845        32185.4953675917        35.4032874995733     0.00392276424268324                       0 
                    7.9                    0.15     0.00280186791194129        1.11615886730505        52.8852191933514   4.10082680066389E-008    0.000667528292959329        52.8852191933514       0.152908487081535       -4495.95848048952       -2925.79554025769    1.8346703983934E-005                       0         298.45736853047        301946.094987416        4.77754816142338                    1007        4.80384815925022        29541.4097735742        35.3609064316072     0.00426990401535259                       0 
                    7.9                    0.15     0.00303535690460307        1.11627004188511        53.5084303340749   4.08559421753011E-008    0.000732583137072019        53.5084303340749       0.154718110948082       -4495.95828545466       -2888.16045922315   1.83452921127655E-005                       0        298.427661915678        301949.353905923        5.16334172941858                    1007        5.18964168287927        27289.9239564939        35.3167541326956      0.0046147047917774                       0 
                    7.9                    0.15     0.00326884589726484        1.11637500699121        54.0907385094844   4.06657151242321E-008    0.000798468116176242        54.0907385094844       0.156409187968096        -4495.9581072602       -2852.62305138515   1.83439590330174E-005                       0        298.399621447335        301952.423179351        5.54675026731158                    1007        5.57305022077227        25330.1139032284        35.2712738142835     0.00495737381466964                       0 
                    7.9                    0.15     0.00350233488992662        1.11647501636329        54.6407577738748   4.04473277562688E-008    0.000865046612254554        54.6407577738748       0.158006678932942       -4495.95794375374       -2818.75263388283   1.83426883563178E-005                       0        298.372906175098        301955.332523196        5.92813333660623                    1007        5.95443329006692        23591.3251552564        35.2247834955642     0.00529823238268802                       0 
                    7.9                    0.15     0.00373582388258839        1.11656721376482         55.140554464421   4.01856030013802E-008     0.00093287815290813         55.140554464421       0.159458571046469       -4495.95778179109       -2787.51692329206   1.83415178254165E-005                       0        298.348271073603        301958.015403269        6.30571038405253                    1007        6.33201033751322        22164.2041635776        35.1768457825043     0.00563568943584998                       0 
                    7.9                    0.15     0.00396931287525017        1.11665617312896        55.6196532565913    3.9905290544179E-008     0.00100131325894774        55.6196532565913       0.160850457434984       -4495.95756697845       -2757.38450727779   1.83403886196303E-005                       0        298.324511589916         301960.59841041        6.68138673614432                    1007        6.70768668960502        20853.3376467228        35.1283566158005     0.00597144780604653                       0 
                    7.9                    0.15     0.00420280186791194        1.11674122044699         56.073755408541   3.96044831646093E-008     0.00107047537121787         56.073755408541        0.16216987528818       -4495.95728097368       -2728.58464531654   1.83393093179602E-005                       0        298.301809960987        301963.060730129        7.05476919745621                    1007        7.08106915091691         19682.867622647        35.0792041843631     0.00630515608948459                       0 
                    7.9                    0.15     0.00443629086057372        1.11682135075235        56.4973798538778   3.92778716773388E-008     0.00114067603369991        56.4973798538778       0.163400912013604       -4495.95701254867       -2701.43470735899   1.83382919830798E-005                       0        298.280418105812         301965.39012011        7.42477512807505                    1007        7.45107527265223        18667.5449506475        35.0293014357345     0.00663584673843505                       0 
                    7.9                    0.15     0.00466977985323549        1.11689980304593        56.9106112847584   3.89435472637394E-008     0.00121122911811345        56.9106112847584       0.164601810320545       -4495.95675011772       -2674.84747539312   1.83372957766106E-005                       0        298.259472835632        301967.674319097        7.79363094688369                    1007         7.8199313477411        17705.1260575879        34.9791447735301     0.00696550952715841                       0 
                    7.9                    0.15     0.00490326884589726        1.11697300547728        57.2914071139086   3.85846071649939E-008     0.00128307356510501        57.2914071139086       0.165708634902411        -4495.9565068194       -2650.04294930566   1.83363670376176E-005                       0        298.239934690581        301969.791987705         8.1581610094207                    1007        8.18446102340741        16892.5142550277        34.9282413570602     0.00729130578596552                       0 
                    7.9                    0.15     0.00513675783855904        1.11704552785088        57.6679921088387   3.82232596757555E-008     0.00135508370731822        57.6679921088387       0.166803246949462       -4495.95626600421       -2625.46991580213   1.83354470321678E-005                       0        298.220579169562        301971.888043132        8.52213093419036                    1007         8.5484304778349         16099.348352138        34.8772428360246     0.00761660136392209                       0 
                    7.9                    0.15     0.00537024683122081        1.11711339392736        58.0163452490327   3.78438342262838E-008     0.00142840852801165        58.0163452490327       0.167815969993347       -4495.95604218226       -2602.47122306961   1.83345863207239E-005                       0        298.202465116105        301973.848317859        8.88158340894094                    1007        8.90788307063009        15424.6159500331        34.8256309302936     0.00793785996765002                       0 
                    7.9                    0.15     0.00560373582388259        1.11718048501145        58.3600058474704   3.74620849623709E-008       0.001501949348014        58.3600058474704       0.168815081682305       -4495.95582118412       -2579.73427715895   1.83337354812895E-005                       0        298.184557742247        301975.786029529        9.24028685391132                    1007        9.26658671949804        14769.5669340925        34.7739191781044     0.00825844920534074                       0 
                    7.9                    0.15     0.00583722481654436        1.11724435590105        58.6844585880807   3.70692963871247E-008     0.00157653707100745        58.6844585880807       0.169758472575397       -4495.95561196076       -2558.08370532263   1.83329253011019E-005                       0        298.167513742147        301977.620499905        9.59531187620866                    1007        9.62161194611507        14187.7668821393        34.7218077148697     0.00857575067933155                       0 
                    7.9                    0.15     0.00607071380920614        1.11730647578524        58.9984789834554   3.66712285239334E-008     0.00165168943515855        58.9984789834554       0.170671599759512       -4495.95540913163       -2537.02326704631   1.83321372130066E-005                       0        298.150938417346        301979.398905756        9.94834194436361                    1007        9.97464222426627        13645.7478547138        34.6694822254849     0.00889126907726737                       0 
                    7.9                    0.15     0.00630420280186791        1.11736751127436        59.3060672512565   3.62699645722747E-008     0.00172725412637676        59.3060672512565       0.171566063758094       -4495.95521031236       -2516.33165316793   1.83313629522048E-005                       0        298.134654743302         301981.14788938        10.2999000482412                    1007        10.3262003910105        13126.0496889982        34.6170254048535     0.00920547188675938                       0 
                    7.9                    0.15     0.00653769179452969        1.11742512160731        59.5933635047856   3.58599060972483E-008     0.00180411091431872        59.5933635047856       0.172401649367829       -4495.95502414122       -2496.80378963489   1.83306323061787E-005                       0        298.119289806155        301982.804067868        10.6468208828602                    1007         10.673120862014        12676.7643589313        34.5641607997788     0.00951553010214907                       0 
                    7.9                    0.15     0.00677118078719146        1.11748273343038        59.8806585662218    3.5450076816663E-008     0.00188096441643823        59.8806585662218       0.173237231438538       -4495.95483797007       -2477.27605427568   1.83299016828901E-005                       0        298.103925250478        301984.460246356         10.993743934772                    1007        11.0200435503103        12227.4811284737        34.5112984358387     0.00982559029659925                       0 
                    7.9                    0.15     0.00700466977985323         1.1175377841874        60.1530385044424   3.50358691019046E-008     0.00195893373385308        60.1530385044424       0.174029530619724        -4495.9546084324       -2458.61514375842   1.83292035524386E-005                       0         298.08924352756        301986.035844708        11.3366043917384                    1007        11.3629040746292        11825.3226714046        34.4581369409051      0.0101320196765153                       0 
                    7.9                    0.15     0.00723815877251501        1.11759125106985        60.4161956185157    3.4619171511739E-008     0.00203758686950677        60.4161956185157       0.174795065854482       -4495.95435818814       -2440.49033942149   1.83285255238091E-005                       0        298.074984182254        301987.561236074        11.6769573665024                    1007        11.7032573831794        11452.3009814086        34.4047944295634      0.0104362080659988                       0 
                    7.9                    0.15     0.00747164776517678        1.11764471944242        60.6793539723656   3.42023986484524E-008     0.00211624397637813        60.6793539723656       0.175560604442002       -4495.95410184036       -2422.36539775545   1.83278474951796E-005                       0        298.060724836948        301989.087018065        12.0173076113737                    1007        12.0436079618369        11079.2773627017        34.3514493909847      0.0107403940224021                       0 
                    7.9                    0.15     0.00770513675783856        1.11769527749946        60.9259053406443   3.37845031213006E-008     0.00219635286988639        60.9259053406443       0.176277943172193       -4495.95386147173       -2405.21835529271   1.83272063944362E-005                       0        298.047242422289        301990.529151695        12.3522869429032                    1007        12.3785873732011        10754.0663367332        34.2977701068658      0.0110397797326732                       0 
                    7.9                    0.15     0.00793862575050033        1.11774492064158        61.1672346412992   3.33662125186203E-008     0.00227691338804422        61.1672346412992       0.176980125231595       -4495.95362002295       -2388.37887810691   1.83265769027001E-005                       0        298.034004251058        301991.944988817        12.6855811362265                    1007        12.7118815665244        10443.8879095149        34.2439885594278      0.0113376593597696                       0 
                    7.9                    0.15     0.00817211474316211         1.1177945637837        61.4085652770982    3.2947964060006E-008     0.00235747867923023        61.4085652770982       0.177682311388816       -4495.95338467768       -2371.53925748848    1.8325947410964E-005                       0        298.020766079826        301993.360825939        13.0188720155315                    1007        13.0451724458294         10133.707712277        34.1902041986505      0.0116355360182753                       0 
                    7.9                    0.15     0.00840560373582388        1.11784198242453         61.637072734154   3.25298536134735E-008     0.00243935808865156         61.637072734154        0.17834727517462       -4495.95311509948       -2355.46435087995   1.83253464602797E-005                       0        298.008128409815         301994.70748795         13.347243636751                    1007        13.3735439757879        9857.18708172969        34.1361529839118      0.0119290161418669                       0 
                    7.9                    0.15     0.00863909272848566        1.11788819642252        61.8586360052932   3.21118179051611E-008     0.00252194913763786        61.8586360052932       0.178992081784693       -4495.95282698299        -2339.8035628269   1.83247609655423E-005                       0        297.995815931568        301996.016689293        13.6729513129845                    1007        13.6992515113395        9598.89424739832        34.0819572587082       0.012220115392787                       0 
                    7.9                    0.15     0.00887258172114743        1.11793441042051        62.0801978936046   3.16936148196254E-008     0.00260453446481108        62.0801978936046       0.179636884296946        -4495.9525388665       -2324.14292736174   1.83241754708049E-005                       0        297.983503834791        301997.325890636        13.9986630065711                    1007        14.0249630761652        9340.60306101616        34.0277646329461      0.0125112182409405                       0 
                    7.9                    0.15      0.0091060707138092        1.11797978791647         62.297115775505   3.12762739311864E-008     0.00268768443154308         62.297115775505       0.180268204198538       -4495.95225685244       -2308.76259884329   1.83236005885663E-005                       0        297.971412488561        301998.610654677        14.3222620184064                    1007         14.348561983788         9093.4348878647        33.9734661565514      0.0128004328750088                       0 
                    7.9                    0.15     0.00933955970647098        1.11802277508611        62.5007593367094   3.08609185086257E-008     0.00277243152028521        62.5007593367094       0.180860985479511       -4495.95199227626       -2294.18369074688   1.83230560318194E-005                       0        297.959953032826        301999.825588489        14.6398354668232                    1007        14.6661354322048        8878.05572367303        33.9188740659531      0.0130842621673557                       0 
                    7.9                    0.15     0.00957304869913275        1.11806576225575        62.7044014197186   3.04452784248815E-008      0.0028571717667168        62.7044014197186       0.181453762290134       -4495.95172770009       -2279.60494439364   1.83225114750726E-005                       0        297.948493577092        302001.040912926           14.9574137909                    1007        14.9837137324397        8662.67808536026         33.864285456266      0.0133680958019941                       0 
                    7.9                    0.15     0.00980653769179453        1.11810874942539        62.9080449809231   3.00299230023208E-008     0.00294191885545893        62.9080449809231       0.182046543571107       -4495.95146312391       -2265.02603629723   1.83219669183257E-005                       0        297.937034121357        302002.255846738        15.2749872393168                    1007        15.3012871808565        8447.29892116859        33.8096933656677      0.0136519250943409                       0 
                    7.9                    0.15      0.0100400266844563        1.11815007282579        63.1024485780679   2.96181674491342E-008     0.00302797167104018        63.1024485780679       0.182612497767034       -4495.95121081061        -2251.0117219146   1.83214433580341E-005                       0        297.926023824656        302003.418887535        15.5876068612286                    1007        15.6139067353532        8252.11764901098        33.7548786041246       0.013931326910567                       0 
                    7.9                    0.15      0.0102735156771181        1.11819013179762        63.2898300027221   2.92091477186767E-008     0.00311501681072906        63.2898300027221       0.183158063959567       -4495.95096781683       -2237.42648652185   1.83209357545936E-005                       0         297.91535487909        302004.542490765        15.8964616823272                    1007        15.9227614378024        8072.28633718835        33.6998946174878      0.0142073639408678                       0 
                    7.9                    0.15      0.0105070046697799        1.11823018927933        63.4772098061299   2.87998024930329E-008     0.00320205378388312        63.4772098061299       0.183703625495487       -4495.95072482305       -2223.84142202754   1.83204281738904E-005                       0        297.904685933524        302005.665703369        16.2053223685227                    1007        16.2316219934278        7892.45646579541        33.6449145409158      0.0144834061982165                       0 
                    7.9                    0.15      0.0107404936624416        1.11827024825116        63.6645912307841   2.83907827625754E-008       0.003289098923572        63.6645912307841       0.184249191688019       -4495.95048182927       -2210.25618663479   1.83199205704499E-005                       0        297.894016987959        302006.789306599        16.5141771896213                    1007         16.540476695877        7712.62515397278        33.5899305542791      0.0147594432285172                       0 
                    7.9                    0.15      0.0109739826551034        1.11830883713623        63.8438586300732   2.79876339079105E-008     0.00337749148346008        63.8438586300732       0.184771194192072       -4495.95021905244       -2197.17252885807   1.83194316759909E-005                       0        297.883740980688        302007.870496968        16.8179041928613                    1007         16.844203525907        7548.99248491789        33.5347292385034      0.0150308972717129                       0 
                    7.9                    0.15      0.0112074716477652        1.11834621986651        64.0164687551642   2.75893019016257E-008     0.00346698955452448        64.0164687551642       0.185273863513361       -4495.94994004431       -2184.50039798338   1.83189581315972E-005                       0        297.873787365554        302008.916889069        17.1174240007837                    1007        17.1437231158543        7398.65023605401        33.4793496117656      0.0152985911341807                       0 
                    7.9                    0.15      0.0114409606404269        1.11838360259679        64.1890771636414   2.71906739764958E-008     0.00355647786125376        64.1890771636414       0.185776527805508       -4495.94966713969       -2171.82845326592   1.83184845872035E-005                       0         297.86383375042        302009.963671795        17.4169507943705                    1007        17.4432497153079        7248.30932386006        33.4239742765623      0.0155662912597927                       0 
                    7.9                    0.15      0.0116744496330887        1.11842098532707        64.3616872887324    2.6792341970211E-008     0.00364597593231816        64.3616872887324       0.186279197126797       -4495.94938813156       -2159.15632239123   1.83180110428098E-005                       0        297.853880135287        302011.010063896         17.716470602293                    1007        17.7427693052552        7097.96707499618        33.3685946498245      0.0158339851222604                       0 
                    7.9                    0.15      0.0119079386257505        1.11845793702946        64.5319590427928   2.63961649004969E-008     0.00373593080928266        64.5319590427928       0.186775073954271       -4495.94910414408       -2146.63039828073   1.83175430036108E-005                       0         297.84404117726        302012.042788102         18.014251922696                    1007         18.040550480522        6951.89059827917        33.3131436926577       0.016100125267888                       0 
                    7.9                    0.15      0.0121414276184123         1.1184928448311        64.6911424232522   2.60102063724385E-008     0.00382805182430531        64.6911424232522       0.187238741304237       -4495.94879654489       -2134.79777527731   1.83171010696167E-005                       0        297.834745914319        302013.010700211        18.3037894704624                    1007        18.3300882285483        6826.04208138652         33.257354492143      0.0163588978090732                       0 
                    7.9                    0.15       0.012374916611074        1.11852775263275        64.8503258037117   2.56242478443801E-008     0.00392017283932795        64.8503258037117       0.187702408654203        -4495.9484889457        -2122.9651522739   1.83166591356226E-005                       0        297.825450651378         302013.97861232        18.5933270182288                    1007        18.6196259765746        6700.19356449387        33.2015652916283      0.0166176703502583                       0 
                    7.9                    0.15      0.0126084056037358        1.11856265894429          65.00950737219    2.5238030057041E-008     0.00401228216625229          65.00950737219       0.188166070788762       -4495.94818134651       -2111.13272458299   1.83162172016285E-005                       0        297.816155769907        302014.946133805        18.8828729344873                    1007        18.9091721169348        6574.34632323598        33.1457809548526      0.0168764503885902                       0 
                    7.9                    0.15      0.0128418945963976        1.11859756674594        65.1686907526495   2.48520715289826E-008     0.00410440318127494        65.1686907526495       0.188629738138728       -4495.94787374733       -2099.30010157957   1.83157752676344E-005                       0        297.806860506967        302015.914045914        19.1724104822537                    1007        19.1987098649611        6448.49780634333        33.0899917543379      0.0171352229297753                       0 