VARIABLES = "X"
 "Y"
 "Z"
 "RHO"
 "U"
 "V"
 "W"
 "VelocityMagnitude"
 "Mach"
 "P"
 "P_tot"
 "Vislam"
 "SkinFrictionCoefficient"
 "T"
 "H0"
 "COND_TURB"
 "CP"
 "COND_eff"
 "Ywall"
 "VIS_T"
 "YPLUS"
ZONE
DT=(DOUBLE,DOUBLE,DOUBLE,DOUBLE,DOUBLE,DOUBLE,DOUBLE,DOUBLE,DOUBLE,DOUBLE,DOUBLE,DOUBLE,DOUBLE,DOUBLE,DOUBLE,DOUBLE,DOUBLE,DOUBLE,DOUBLE,DOUBLE,DOUBLE)
                    7.9                    0.15                       0        1.11188541799784                       0                       0                       0                       0                       0        -4496.6567199707       -4395.12015380859   1.84010468501583E-005     0.00249351856764406        299.603255844116            301700.46875    0.000145798897210625                    1007      0.0264457989251241   2.49999993684469E-005   1.30306857393236E-007        4.51788772940636 
                    7.9                    0.15    0.000233488992661774         1.1137127971445        36.8918224362949   5.07829793356051E-008   3.22277449717729E-005        36.8918224362949       0.106549807442876       -4496.65670397017       -3735.83493364082   1.83777262742254E-005                       0        299.106056027649        301886.631804504       0.339291963957606                    1007       0.365591963470907    0.000234965993749348    0.000303240097865444                       0 
                    7.9                    0.15    0.000466977985323549        1.11437178727949        41.8935144590839   6.59683531997748E-008   7.11260004868146E-005        41.8935144590839       0.121031302415276       -4496.65623168945       -3514.84871618079   1.83693307898224E-005                       0          298.9324378006        301905.146954002       0.710865723615433                    1007       0.737165734683585    0.000468892939470744    0.000635331823837878                       0 
                    7.9                    0.15    0.000700466977985323        1.11478943834485        44.7827131255003    7.0566096650003E-008    0.000114249778379578        44.7827131255003         0.1294025457146       -4496.65623168945       -3373.76392556838   1.83640134899596E-005                       0        298.821103050683        301917.603730603        1.06914113843409                    1007        1.09544110787215    0.000702819381660947    0.000955538264628883                       0 
                    7.9                    0.15    0.000933955970647098        1.11510605738852        46.8551013374707   7.10249165319401E-008    0.000160155457362447        46.8551013374707       0.135410062697308       -4496.65623168945       -3266.70150124396   1.83599847033837E-005                       0        298.736531898851        301927.050633777        1.42416640308954                    1007        1.45046638105695    0.000936745065381634     0.00127283990495812                       0 
                    7.9                    0.15     0.00116744496330887        1.11536368086379         48.475738471902   6.96535726157657E-008    0.000208203887697613         48.475738471902       0.140109808841973        -4496.6562068784       -3179.54913687055   1.83567076244667E-005                       0        298.667697581871        301934.711436333         1.7771284012884                    1007        1.80342841584386     0.00117067017928475     0.00158829747391591                       0 
                    7.9                    0.15     0.00140093395597065        1.11557914411208        49.7872341530369   6.73518641152599E-008    0.000258189038652532        49.7872341530369       0.143914360630537       -4496.65584971056       -3106.62831422603   1.83539681753521E-005                       0        298.610108924587        301941.099456249        2.12803273086784                    1007        2.15433271028126     0.00140459471930192     0.00190191605621832                       0 
                    7.9                    0.15     0.00163442294863242        1.11576842451744        50.9128048983511   6.46327625531497E-008       0.000309647078723        50.9128048983511       0.147180380547386        -4496.6557434082       -3042.55786633174   1.83515615475403E-005                       0        298.559515448852        301946.712285604        2.47710024574912                    1007        2.50340019920981     0.00163851861523927     0.00221389292849076                       0 
                    7.9                    0.15      0.0018679119412942        1.11593580169009        51.8867154214511   6.16601267451835E-008    0.000362563826759642        51.8867154214511       0.150007029403359        -4496.6557316427       -2985.89209561577   1.83494347947495E-005                       0        298.514797253461        301951.637767737        2.82405332091091                    1007        2.85035327437161     0.00187244188123751     0.00252398004465075                       0 
                    7.9                    0.15     0.00210140093395597        1.11608571816734        52.7427869738329   5.85544052592597E-008    0.000416854398690792        52.7427869738329       0.152492226004058       -4496.65546640817       -2935.11605727886   1.83475302138367E-005                       0        298.474721814018        301956.062764229        3.16870767638985                    1007        3.19500764291494     0.00210636461382419     0.00283201275627989                       0 
                    7.9                    0.15     0.00233488992661774        1.11622271694981        53.5131849017433   5.53949687173263E-008    0.000472333186827135        53.5131849017433       0.154729120244688       -4496.65525512695       -2888.70724332974   1.83457892376864E-005                       0        298.438119433852        301960.096840017        3.51112230961816                    1007        3.53742236922373     0.00234028627221093     0.00313804383154285                       0 
                    7.9                    0.15     0.00256837891927952        1.11634902150676        54.2134131639199   5.22247922634663E-008     0.00052894116525817        54.2134131639199       0.156762633093077       -4496.65525512695       -2845.93180881703   1.83441857691808E-005                       0        298.404381852993        301963.801198291        3.85120916099103                    1007        3.87750911612805     0.00257420836368125     0.00344199434529706                       0 
                    7.9                    0.15     0.00280186791194129        1.11646480377722        54.8464687792696   4.90898854554607E-008    0.000586825578403282        54.8464687792696       0.158601408285388       -4496.65505031374        -2806.6923166522   1.83427150652185E-005                       0        298.373452931389        301967.190948519        4.18840877371401                    1007        4.21470891526668     0.00280812869493376     0.00374336436983147                       0 
                    7.9                    0.15     0.00303535690460307         1.1165730149439        55.4316959486466   4.60193579136503E-008    0.000645782422651288        55.4316959486466       0.160301513759018       -4496.65486748591       -2770.00946411883   1.83413410313086E-005                       0        298.344546435387        301970.349374684        4.52297896488401                    1007        4.54927901662616     0.00304204870499657     0.00404238433610815                       0 
                    7.9                    0.15     0.00326884589726484         1.1166751711911        55.9789037848736    4.3031352489708E-008    0.000705702816181911        55.9789037848736       0.161891371760891       -4496.65468929145       -2735.37950961387   1.83400440870828E-005                       0        298.317268140665        301973.330898517        4.85507274181914                    1007        4.88137269527983     0.00327596817352186     0.00433919107090438                       0 
                    7.9                    0.15     0.00350233488992662        1.11677252816524        56.4960925803491   4.01117620403139E-008    0.000766426458400401        56.4960925803491       0.163394173543552       -4496.65451357795       -2702.38003306723   1.83388081279342E-005                       0        298.291284692926         301976.17491862        5.18503000632923                    1007        5.21132995978993     0.00350988708087555     0.00463408837948651                       0 
                    7.9                    0.15     0.00373582388258839         1.1168623298096        56.9665826940399   3.73627415923838E-008     0.00082864114268082        56.9665826940399       0.164761547862131       -4496.65436382234       -2671.95262010637   1.83376689505392E-005                       0        298.267321352438         301978.78836443        5.51080406613975                    1007        5.53710401960045     0.00374380508435338     0.00492524686586306                       0 
                    7.9                    0.15     0.00396931287525017        1.11694893405805        57.4178380828348   3.47209468308678E-008    0.000891596914961357        57.4178380828348        0.16607312480678        -4496.6541490097        -2642.5995501407   1.83365701680133E-005                       0         298.24420484725        301981.304155771        5.83440577430987                    1007        5.86070572777057     0.00397772248550765     0.00521446388740759                       0 
                    7.9                    0.15     0.00420280186791194        1.11703167713839        57.8458631922958   3.21910128762358E-008    0.000955435567525038        57.8458631922958       0.167317313791556       -4496.65386300493       -2614.54409626002   1.83355201889779E-005                       0        298.222110978466        301983.702019795        6.15538616064264                    1007        6.18168611410334     0.00421163915929736     0.00550133818805747                       0 
                    7.9                    0.15     0.00443629086057372        1.11710966872949        58.2455917140973   2.98670779247732E-008     0.00102057926294279        58.2455917140973       0.168479412714054        -4496.6537902832       -2588.09035520035   1.83345299885013E-005                       0        298.201289526432         301985.96502007        6.47237076697666                    1007        6.49867072043736     0.00444555553270914     0.00578464122860479                       0 
                    7.9                    0.15     0.00466977985323549        1.11718604023636        58.6356705510867   2.75996257568339E-008     0.00108615938466036        58.6356705510867       0.169613517242453        -4496.6537902832       -2562.18290026096   1.83335601780818E-005                       0         298.18090192202        301988.182036734        6.78799468298878                    1007        6.81429463644947     0.00467947180370302     0.00606672814183302                       0 
                    7.9                    0.15     0.00490326884589726        1.11725736423896        58.9956772125509   2.56099720916092E-008     0.00115340641901701        58.9956772125509       0.170660366567909        -4496.6535771319       -2537.99962530108   1.83326555136994E-005                       0        298.161874124929        301990.237420971        7.09834504747837                    1007        7.12464500093907      0.0049133862065013     0.00634410183750394                       0 
                    7.9                    0.15     0.00513675783855904        1.11732803315014        59.3517794605176   2.36424081714492E-008     0.00122086154129741        59.3517794605176       0.171695887273861       -4496.65333631671       -2514.04027047168   1.83317593043092E-005                       0        298.143023192186        301992.271827709        7.40801291845922                    1007        7.43431287191991     0.00514730036683542     0.00662086555749221                       0 
                    7.9                    0.15     0.00537024683122081        1.11739420107284        59.6817572892312   2.19729970492553E-008     0.00129006430809646        59.6817572892312       0.172655601032076       -4496.65311249476       -2491.59743472666   1.83309203356268E-005                       0        298.125377765941        301994.174804017        7.71203719064063                    1007        7.73833732916694     0.00538121344057577     0.00689258538133488                       0 
                    7.9                    0.15     0.00560373582388259        1.11745961956361         60.007392345611   2.03366427095583E-008     0.00135954791047608         60.007392345611       0.173602712835137       -4496.65289149662       -2469.40676232461     1.833009090153E-005                       0        298.107932725463        301996.055940163        8.01512615378244                    1007        8.04142650812725      0.0056151263337538     0.00716346928709996                       0 
                    7.9                    0.15     0.00583722481654436        1.11752197115898        60.3152942863585   1.89431784181451E-008     0.00143046627302632        60.3152942863585       0.174498357688254       -4496.65268227326       -2448.25766320879   1.83293002516838E-005                       0          298.0913062481        301997.845261997        8.31353213914372                    1007        8.33983256944157     0.00584903831504365     0.00743016789662494                       0 
                    7.9                    0.15     0.00607071380920614        1.11758265499706        60.6135639995414   1.76577435774134E-008     0.00150214982877752        60.6135639995414       0.175366046945548       -4496.65247944413       -2427.67441098884   1.83285306529876E-005                       0        298.075124667687        301999.584724654        8.60939901786319                    1007        8.63569944816104     0.00608294980113846      0.0076945972387905                       0 
                    7.9                    0.15     0.00630420280186791        1.11764230471234        60.9059107743254   1.64755617537739E-008     0.00157441814498348        60.9059107743254       0.176216543574888       -4496.65228062486       -2407.44296818304   1.83277742879223E-005                       0        298.059220604153        302001.295534978        8.90336749448204                    1007        8.92966788101563     0.00631686081584404     0.00795732977210512                       0 
                    7.9                    0.15     0.00653769179452969        1.11769868784293        61.1795699916287   1.55684361553718E-008     0.00164850125496701        61.1795699916287       0.177012796212728       -4496.65209445372       -2388.32170242634    1.8327059593352E-005                       0        298.044193102203        302002.915968607        9.19135661737251                    1007        9.21765682209835     0.00655077034366898     0.00821471788973285                       0 
                    7.9                    0.15     0.00677118078719146        1.11775507246364         61.453227540002   1.46439185802223E-008     0.00172257373623165         61.453227540002       0.177809043821425       -4496.65190828257       -2369.20060146457   1.83263449215191E-005                       0        298.029165218783        302004.536402235        9.47934911388587                    1007        9.50564912488303     0.00678467987149391      0.0084721090225174                       0 
                    7.9                    0.15     0.00700466977985323         1.1178090097979        61.7131902255514   1.39576418478207E-008      0.0017982628971973        61.7131902255514       0.178565536509174       -4496.65162594047       -2350.90183513318   1.83256611470203E-005                       0         298.01478732347        302006.074688322        9.76206867505138                    1007        9.78836861659115     0.00701858814983022     0.00872478782384508                       0 
                    7.9                    0.15     0.00723815877251501        1.11786143359856        61.9646835632833   1.33896235592605E-008     0.00187493293471921        61.9646835632833       0.179297443345809       -4496.65128414343        -2333.1117324969   1.83249964879694E-005                       0        298.000811410308        302007.562189044        10.0415345576875                    1007        10.0678345230692       0.007252495655706     0.00897455886916005                       0 
                    7.9                    0.15     0.00747164776517678        1.11791385888934        62.2161787606801   1.28398803077391E-008     0.00195161499066791        62.2161787606801       0.180029355584114       -4496.65094234639       -2315.32145285867   1.83243318289184E-005                       0        297.986835115677        302009.049689767         10.320996363366                    1007        10.3472963287476     0.00748640316158177     0.00922432627067544                       0 
                    7.9                    0.15     0.00770513675783856        1.11796358459976        62.4524687049557   1.25485830949278E-008     0.00203044945867403        62.4524687049557       0.180717120261145       -4496.65074122529       -2298.45377327608   1.83237019303077E-005                       0        297.973584535117        302010.459748201        10.5934843051944                    1007         10.619784270576     0.00772030951406473     0.00946786075828101                       0 
                    7.9                    0.15     0.00793862575050033        1.11801246164401        62.6839765761952   1.23199862572417E-008     0.00210994697951621        62.6839765761952       0.181391000509955       -4496.65058432845        -2281.8763264758   1.83230829593248E-005                       0        297.960562097046        302011.845461129        10.8637847872077                    1007        10.8900847287475     0.00795421550395597     0.00970944019569048                       0 
                    7.9                    0.15     0.00817211474316211        1.11806133868825        62.9154864501507   1.21099366388716E-008     0.00218945810057836        62.9154864501507       0.182064886532965       -4496.65042743161       -2265.29868436302   1.83224639883419E-005                       0        297.947539658975        302013.231174058        11.1340803577983                    1007        11.1603802993381     0.00818812149384721     0.00995101524424232                       0 
                    7.9                    0.15     0.00840560373582388        1.11810810034323        63.1352916664808   1.20962314582799E-008     0.00227096591480771        63.1352916664808       0.182704786381232       -4496.65018541198        -2249.4381606498   1.83218716074124E-005                       0        297.935082907689        302014.555291817        11.3980272967464                    1007        11.4243271470252      0.0084220256325305      0.0101869161977295                       0 
                    7.9                    0.15     0.00863909272848566        1.11815371644323        63.3487584139905   1.21888534456182E-008     0.00235355500606275        63.3487584139905       0.183326281563951       -4496.64989729549       -2233.96598085584   1.83212936258981E-005                       0        297.922932494969        302015.846053705        11.6585362364803                    1007        11.6848359460772     0.00865592876872193       0.010419744436422                       0 
                    7.9                    0.15     0.00887258172114743        1.11819933254322        63.5622229203656   1.22634238838126E-008     0.00243612868683956        63.5622229203656       0.183947770227412         -4496.649609179       -2218.49401163317   1.83207156443837E-005                       0         297.91078246372        302017.136815592        11.9190509817066                    1007        11.9453505625425     0.00888983190491337      0.0106525778672379                       0 
                    7.9                    0.15     0.00910607071380921        1.11824417922579        63.7714619833356   1.24222943879444E-008     0.00251958510302045        63.7714619833356       0.184556988814981       -4496.64932716494        -2203.2833188768    1.8320147541345E-005                       0        297.898839033675        302018.402433341        12.1768706676797                    1007         12.203170177793     0.00912373440617417      0.0108830025856029                       0 
                    7.9                    0.15     0.00933955970647098        1.11828682727801        63.9686203276626   1.27704717536389E-008     0.00260551992275836        63.9686203276626       0.185131126712275       -4496.64906258876        -2188.8198321383   1.83196076663077E-005                       0        297.887487062013        302019.596201059        12.4270057410147                    1007        12.4533053803156     0.00935763509310415      0.0111065591820548                       0 
                    7.9                    0.15     0.00957304869913276        1.11832947384012        64.1657762401202   1.31019477679206E-008     0.00269143723654225        64.1657762401202       0.185705257531519       -4496.64879801259       -2174.35657428163   1.83190678140078E-005                       0         297.87613509035        302020.789968777        12.6771476331211                    1007        12.7034474135305     0.00959153578003413      0.0113301218786695                       0 
                    7.9                    0.15     0.00980653769179453        1.11837212189234        64.3629345844473   1.34501251336151E-008     0.00277737205628016        64.3629345844473       0.186279395428813       -4496.64853343641       -2159.89308754313   1.83185279389705E-005                       0        297.864783118688        302021.983736495        12.9272827064562                    1007        12.9535826160532     0.00982543646696411      0.0115536784751214                       0 
                    7.9                    0.15      0.0100400266844563        1.11841322301594        64.5517063536516   1.39113037279946E-008     0.00286537048515338        64.5517063536516       0.186829175670521       -4496.64828112311       -2145.95284403785   1.83180074289679E-005                       0        297.853842964966        302023.135428473         13.171210978846                    1007        13.1975109442276      0.0100593354227922       0.011771687809292                       0 
                    7.9                    0.15      0.0102735156771181         1.1184531485073        64.7341045074676   1.44583608078712E-008     0.00295493721225892        64.7341045074676       0.187360444621721       -4496.64803812933       -2132.41025405315   1.83175016359721E-005                       0        297.843215783955        302024.255143803        13.4104222169949                    1007        13.4367221823766      0.0102932330630204      0.0119854813443168                       0 
                    7.9                    0.15      0.0105070046697799        1.11849307399866         64.916500086363   1.49909225272803E-008     0.00304448399741984         64.916500086363       0.187891705936075       -4496.64779513555       -2118.86791431258   1.83169958657137E-005                       0        297.832588984415        302025.374859132        13.6496414183245                    1007        13.6759413598642      0.0105271307032487      0.0121992819806762                       0 
                    7.9                    0.15      0.0107404936624416        1.11853299949001         65.098898240179   1.55379796071568E-008     0.00313405072452538         65.098898240179       0.188422974887275       -4496.64755214177       -2105.32532432788   1.83164900727179E-005                       0        297.821961803405        302026.494574461        13.8888526564734                    1007        13.9151525980132      0.0107610283434769       0.012413075515701                       0 
                    7.9                    0.15      0.0109739826551034        1.11857156563428        65.2739488764157   1.61605524453283E-008     0.00322578013464277        65.2739488764157       0.188932902439154       -4496.64732001735       -2092.24510041495   1.83160015374515E-005                       0        297.811695040118        302027.570089086        14.1217846917315                    1007        14.1480846931393      0.0109949241548283      0.0126212570839183                       0 
                    7.9                    0.15      0.0112074716477652        1.11860901648178        65.4429711313003   1.68450833236377E-008     0.00331928395057794        65.4429711313003       0.189425320118849       -4496.64709681084        -2079.5442317026   1.83155271615488E-005                       0        297.801723986976        302028.609338579        14.3495648604981                    1007        14.3758649708934      0.0112288184656501      0.0128248342295283                       0 
                    7.9                    0.15       0.011440960640427        1.11864646583916        65.6119906205294    1.7518115577672E-008      0.0034127650073177        65.6119906205294       0.189917729416641       -4496.64687360433       -2066.84363459669    1.8315052785646E-005                       0        297.791753315304        302029.648197446         14.577354196459                    1007        14.6036544277628      0.0114627127764719      0.0130284195824184                       0 
                    7.9                    0.15      0.0116744496330887        1.11868391668666         65.781012875414   1.82026464559815E-008     0.00350626882325287         65.781012875414       0.190410147096335       -4496.64665039783       -2054.14276588433   1.83145784097433E-005                       0        297.781782262161        302030.687446939        14.8051343652256                    1007        14.8314347055169      0.0116966070872937      0.0132319967280284                       0 
                    7.9                    0.15      0.0119079386257505        1.11872097477854        65.9479212288173   1.88990115701916E-008     0.00360051452045485        65.9479212288173       0.190896424460983       -4496.64641249369       -2041.57597067032    1.8314109085149E-005                       0        297.771917184484        302031.714272477        15.0308436598972                    1007        15.0571440901951       0.011930500929335      0.0134337230421222                       0 
                    7.9                    0.15      0.0121414276184123        1.11875617045377        66.1048056257676   1.96514937108415E-008     0.00369827816093713        66.1048056257676       0.191353584929134        -4496.6461048945       -2029.64494156024   1.83136637134661E-005                       0        297.762554634221        302032.682184586        15.2467330306366                    1007        15.2730334609345      0.0121643925484555      0.0136266728570829                       0 
                    7.9                    0.15       0.012374916611074        1.11879136612901         66.261690022718   2.04039758514913E-008     0.00379604180141941         66.261690022718       0.191810745397285       -4496.64579729531       -2017.71391245016   1.83132183417831E-005                       0        297.753192083958        302033.650096695         15.462622401376                    1007        15.4889228316739       0.012398284167576      0.0138196226720435                       0 
                    7.9                    0.15      0.0126084056037358        1.11882656180425        66.4185712725431   2.11486217049665E-008     0.00389377939397343        66.4185712725431       0.192267897111004       -4496.64548969612       -2005.78317936059   1.83127729701002E-005                       0        297.743829533695         302034.61839943        15.6785222863748                    1007        15.7048227166726      0.0126321757866965      0.0140125818933621                       0 
                    7.9                    0.15      0.0128418945963976        1.11886175747949        66.5754556694935   2.19011038456164E-008     0.00399154303445571        66.5754556694935       0.192725057579154       -4496.64518209694       -1993.85215025051   1.83123275984173E-005                       0        297.734466983432        302035.586311539        15.8944116571142                    1007        15.9207120874121       0.012866067405817      0.0142055317083227                       0 
                    7.9                    0.15      0.0130753835890594         1.1188960945125        66.7277947750105   2.26547393749441E-008     0.00409120020562335        66.7277947750105       0.193169013936238       -4496.64488477647       -1982.21158741114   1.83118931328555E-005                       0        297.725333597355         302036.52933238        16.1052308641636                    1007        16.1315312944615      0.0130999570805982      0.0143939501252037                       0 
                    7.9                    0.15      0.0133088725817211        1.11892920597458        66.8736462225513   2.34100211774239E-008     0.00419356008125648        66.8736462225513       0.193594123590587       -4496.64460212718       -1970.98561752925   1.83114742339926E-005                       0        297.716527305564        302037.436825018        16.3088132441832                    1007        16.3351136744811      0.0133338439801541      0.0145759007145922                       0 