VARIABLES = "X"
 "Y"
 "Z"
 "RHO"
 "U"
 "V"
 "W"
 "VelocityMagnitude"
 "Mach"
 "P"
 "P_tot"
 "Vislam"
 "SkinFrictionCoefficient"
 "T"
 "H0"
 "COND_TURB"
 "CP"
 "COND_eff"
 "D"
 "K"
 "VIS_T"
 "YPLUS"
ZONE
DT=(DOUBLE,DOUBLE,DOUBLE,DOUBLE,DOUBLE,DOUBLE,DOUBLE,DOUBLE,DOUBLE,DOUBLE,DOUBLE,DOUBLE,DOUBLE,DOUBLE,DOUBLE,DOUBLE,DOUBLE,DOUBLE,DOUBLE,DOUBLE,DOUBLE,DOUBLE)
                    7.9                    0.15                       0        1.11176418960094                       0                       0                       0                       0                       0       -4500.50087280274       -4389.42672729492   1.84020245797001E-005     0.00304487789107952         299.62385597229        301721.203515625     0.00361447695177049                    1007      0.0299144762801006           2692519.59375                       0   3.23041640513111E-006        5.00928763747215 
                    7.9                    0.15   1.00033344448149E-006        1.11176944371361       0.372907391147713   7.65675734441341E-008   2.07632490958215E-007       0.372907391147713     0.00107622518762797       -4500.50087280274       -4387.55415974636    1.8401957454806E-005     0.00298395984313113        299.621508693282        301723.457079313     0.00476770508701621                    1007      0.0310677044293209        2677747.37092573       0.616807622804466   4.26110690756447E-006        4.90906837668688 
                    7.9                    0.15   2.00066688896299E-006        1.11177469782628       0.745814782295426   1.53135146888268E-007    4.1526498191643E-007       0.745814782295426     0.00215245037525595       -4500.50087280273       -4385.68159219781    1.8401890329912E-005     0.00292304179518274        299.619161414273        301725.710643001     0.00592093322226193                    1007      0.0322209325785411        2662975.14810146        1.23361524560893   5.29179740999782E-006        4.80884911590161 
                    7.9                    0.15   3.00100033344448E-006        1.11177995193895        1.11872217344314   2.29702720332402E-007   6.22897472874644E-007        1.11872217344314     0.00322867556288392       -4500.50087280273       -4383.80902464925   1.84018232050179E-005     0.00286212374723435        299.616814135265        301727.964206689     0.00707416135750765                    1007      0.0333741607277613        2648202.92527719         1.8504228684134   6.32248791243118E-006        4.70862985511634 
                    7.9                    0.15   4.00133377792597E-006        1.11178520605162        1.49162956459085   3.06270293776536E-007   8.30529963832859E-007        1.49162956459085      0.0043049007505119       -4500.50087280273       -4381.93645710069   1.84017560801238E-005     0.00280120569928596        299.614466856257        301730.217770377     0.00822738949275337                    1007      0.0345273888769815        2633430.70245291        2.46723049121787   7.35317841486454E-006        4.60841059433107 
                    7.9                    0.15   5.00166722240747E-006        1.11179046016429        1.86453695573857   3.82837867220671E-007   1.03816245479107E-006        1.86453695573857     0.00538112593813987       -4500.50087280273       -4380.06388955214   1.84016889552298E-005     0.00274028765133757        299.612119577248        301732.471334064      0.0093806176279991                    1007      0.0356806170262017        2618658.47962864        3.08403811402233   8.38386891729789E-006         4.5081913335458 
                    7.9                    0.15   6.00200066688896E-006        1.11179571427696        2.23744434688628   4.59405440664805E-007   1.24579494574929E-006        2.23744434688628     0.00645735112576785       -4500.50087280273       -4378.19132200358   1.84016218303357E-005     0.00267936960338918         299.60977229824        301734.724897752      0.0105338457632448                    1007       0.036833845175422        2603886.25680437         3.7008457368268   9.41455941973125E-006        4.40797207276053 
                    7.9                    0.15   7.00233411137046E-006        1.11180096838962        2.61035173803399   5.35973014108939E-007    1.4534274367075E-006        2.61035173803399     0.00753357631339582       -4500.50087280274       -4376.31875445502   1.84015547054417E-005     0.00261845155544079        299.607425019232         301736.97846144      0.0116870738984905                    1007      0.0379870733246422         2589114.0339801        4.31765335963127   1.04452499221646E-005        4.30775281197526 
                    7.9                    0.15   8.00266755585195E-006        1.11180622250229        2.98325912918171   6.12540587553073E-007   1.66105992766572E-006        2.98325912918171      0.0086098015010238       -4500.50087280273       -4374.44618690646   1.84014875805476E-005      0.0025575335074924        299.605077740223        301739.232025128      0.0128403020337363                    1007      0.0391403014738624        2574341.81115583        4.93446098243573    1.1475940424598E-005        4.20753355118999 
                    7.9                    0.15   9.00300100033344E-006        1.11181147661496        3.35616652032942   6.89108160997207E-007   1.86869241862393E-006        3.35616652032942     0.00968602668865177       -4500.50087280273       -4372.57361935791   1.84014204556535E-005     0.00249661545954401        299.602730461215        301741.485588816       0.013993530168982                    1007      0.0402935296230826        2559569.58833156         5.5512686052402   1.25066309270313E-005        4.10731429040472 
                    7.9                    0.15   1.00033344448149E-005        1.11181673072763        3.72907391147713   7.65675734441341E-007   2.07632490958215E-006        3.72907391147713      0.0107622518762797       -4500.50087280274       -4370.70105180935   1.84013533307595E-005     0.00243569741159561        299.600383182206        301743.739152504      0.0151467583042277                    1007      0.0414467577723028        2544797.36550729        6.16807622804467   1.35373214294647E-005        4.00709502961945 
                    7.9                    0.15   1.10036678892964E-005         1.1118219848403        4.10198130262485   8.42243307885475E-007   2.28395740054036E-006        4.10198130262485      0.0118384770639077       -4500.50087280274       -4368.82848426079   1.84012862058654E-005     0.00237477936364722        299.598035903198        301745.992716192      0.0162999864394734                    1007      0.0425999859215231        2530025.14268301        6.78488385084913    1.4568011931898E-005        3.90687576883418 
                    7.9                    0.15   1.20040013337779E-005        1.11182723895297        4.47488869377256    9.1881088132961E-007   2.49158989149858E-006        4.47488869377256      0.0129147022515357       -4500.50087280273       -4366.95591671223   1.84012190809713E-005     0.00231386131569883         299.59568862419         301748.24627988      0.0174532145747192                    1007      0.0437532140707433        2515252.91985874         7.4016914736536   1.55987024343314E-005        3.80665650804891 
                    7.9                    0.15   1.30043347782594E-005        1.11183249306563        4.84779608492027   9.95378454773744E-007   2.69922238245679E-006        4.84779608492027      0.0139909274391637       -4500.50087280273       -4365.08334916367   1.84011519560773E-005     0.00225294326775044        299.593341345181        301750.499843568      0.0186064427099649                    1007      0.0449064422199635        2500480.69703447        8.01849909645806   1.66293929367648E-005        3.70643724726364 
                    7.9                    0.15   1.40046682227409E-005         1.1118377471783        5.22070347606799   1.07194602821788E-006   2.90685487341501E-006        5.22070347606799      0.0150671526267916       -4500.50087280273       -4363.21078161512   1.84010848311832E-005     0.00219202521980205        299.590994066173        301752.753407256      0.0197596708452106                    1007      0.0460596703691837         2485708.4742102        8.63530671926253   1.76600834391981E-005        3.60621798647837 
                    7.9                    0.15   1.50050016672224E-005        1.11184300129097         5.5936108672157   1.14851360166201E-006   3.11448736437322E-006         5.5936108672157      0.0161433778144196       -4500.50087280273       -4361.33821406656   1.84010177062892E-005     0.00213110717185366        299.588646787165        301755.006970943      0.0209128989804563                    1007      0.0472128985184039        2470936.25138593          9.252114342067   1.86907739416315E-005         3.5059987256931 
                    7.9                    0.15   1.60053351117039E-005        1.11184825540364        5.96651825836341   1.22508117510615E-006   3.32211985533144E-006        5.96651825836341      0.0172196030020476       -4500.50087280274         -4359.465646518   1.84009505813951E-005     0.00207018912390527        299.586299508156        301757.260534631       0.022066127115702                    1007      0.0483661266676242        2456164.02856166        9.86892196487146   1.97214644440648E-005        3.40577946490783 
                    7.9                    0.15   1.70056685561854E-005        1.11185350951631        6.33942564951112   1.30164874855028E-006   3.52975234628965E-006        6.33942564951112      0.0182958281896756       -4500.50087280273       -4357.59307896945    1.8400883456501E-005     0.00200927107595688        299.583952229148        301759.514098319      0.0232193552509478                    1007      0.0495193548168444        2441391.80573739        10.4857295876759   2.07521549464982E-005        3.30556020412256 
                    7.9                    0.15   1.80060020006669E-005        1.11185876362898        6.71233304065884   1.37821632199441E-006   3.73738483724787E-006        6.71233304065884      0.0193720533773035       -4500.50087280274       -4355.72051142089    1.8400816331607E-005     0.00194835302800849        299.581604950139        301761.767662007      0.0243725833861935                    1007      0.0506725829660646        2426619.58291312        11.1025372104804   2.17828454489315E-005        3.20534094333729 
                    7.9                    0.15   1.90063354451484E-005        1.11186401774165        7.08524043180655   1.45478389543855E-006   3.94501732820608E-006        7.08524043180655      0.0204482785649315       -4500.50087280273       -4353.84794387233   1.84007492067129E-005      0.0018874349800601        299.579257671131        301764.021225695      0.0255258115214392                    1007      0.0518258111152848        2411847.36008884        11.7193448332849   2.28135359513649E-005        3.10512168255201 
                    7.9                    0.15   2.00066688896299E-005        1.11186927185431        7.45814782295426   1.53135146888268E-006    4.1526498191643E-006        7.45814782295426      0.0215245037525595       -4500.50087280273       -4351.97537632377   1.84006820818189E-005     0.00182651693211171        299.576910392123        301766.274789383      0.0266790396566849                    1007       0.052979039264505        2397075.13726457        12.3361524560893   2.38442264537982E-005        3.00490242176674 
                    7.9                    0.15   2.10070023341114E-005        1.11187452596698        7.83105521410198   1.60791904232682E-006   4.36028231012251E-006        7.83105521410198      0.0226007289401875       -4500.50087280273       -4350.10280877522   1.84006149569248E-005     0.00176559888416331        299.574563113114        301768.528353071      0.0278322677919307                    1007      0.0541322674137252         2382302.9144403        12.9529600788938   2.48749169562316E-005        2.90468316098147 
                    7.9                    0.15   2.20073357785929E-005        1.11187978007965        8.20396260524969   1.68448661577095E-006   4.56791480108073E-006        8.20396260524969      0.0236769541278154       -4500.50087280274       -4348.23024122666   1.84005478320307E-005     0.00170468083621492        299.572215834106        301770.781916759      0.0289854959271764                    1007      0.0552854955629455        2367530.69161603        13.5697677016983    2.5905607458665E-005         2.8044639001962 
                    7.9                    0.15   2.30076692230744E-005        1.11188503419232         8.5768699963974   1.76105418921508E-006   4.77554729203894E-006         8.5768699963974      0.0247531793154434       -4500.50087280273        -4346.3576736781   1.84004807071367E-005     0.00164376278826653        299.569868555098        301773.035480447      0.0301387240624221                    1007      0.0564387237121657        2352758.46879176        14.1865753245027   2.69362979610983E-005        2.70424463941093 
                    7.9                    0.15   2.40080026675559E-005        1.11189028830499        8.94977738754512   1.83762176265922E-006   4.98317978299715E-006        8.94977738754512      0.0258294045030714       -4500.50087280273       -4344.48510612954   1.84004135822426E-005     0.00158284474031814        299.567521276089        301775.289044134      0.0312919521976678                    1007      0.0575919518613859        2337986.24596749        14.8033829473072   2.79669884635317E-005        2.60402537862566 
                    7.9                    0.15   2.50083361120373E-005        1.11189554241766        9.32266332474128   1.91466442532657E-006   5.19120070447579E-006        9.32266332474128        0.02690556778107       -4500.50087280274       -4342.61271794375   1.84003464688689E-005     0.00152193135653128         299.56517419036        301777.542409905      0.0324451198506975                    1007      0.0587451195519837        2323215.54394155        15.4201379982664   2.89976249356794E-005        2.50380996227545 
                    7.9                    0.15   2.60086695565188E-005        1.11190079653033        9.69554982670089   1.99169458153198E-006   5.39921140073507E-006        9.69554982670089      0.0279817326888056       -4500.50087280274       -4340.74032503634   1.84002793551919E-005     0.00146101784996293        299.562827099542        301779.795780885      0.0335982890958883                    1007      0.0598982888341215        2308444.80188144        16.0368944331505   3.00282628301446E-005         2.4035944447226 
                    7.9                    0.15   2.70090030010003E-005        1.11190605064299        10.0684572178486   2.06826215497611E-006   5.60684389169328E-006        10.0684572178486      0.0290579578764335       -4500.50087280273       -4338.86775748778   1.84002122302978E-005     0.00140009980201454        299.560479820534        301782.049344573       0.034751517231134                    1007      0.0610515169833417        2293672.57905717         16.653702055955    3.1058953332578E-005        2.30337518393733 
                    7.9                    0.15   2.80093364454818E-005        1.11191130475566        10.4413646089963   2.14482972842025E-006    5.8144763826515E-006        10.4413646089963      0.0301341830640615       -4500.50087280274       -4336.99518993922   1.84001451054037E-005     0.00133918175406615        299.558132541525        301784.302908261      0.0359047453663797                    1007      0.0622047451325619         2278900.3562329        17.2705096787594   3.20896438350113E-005        2.20315592315206 
                    7.9                    0.15   2.90096698899633E-005        1.11191655886833         10.814272000144   2.22139730186438E-006   6.02210887360971E-006         10.814272000144      0.0312104082516895       -4500.50087280274       -4335.12262239066   1.84000779805097E-005     0.00127826370611776        299.555785262517        301786.556471949      0.0370579735016254                    1007      0.0633579732817821        2264128.13340863        17.8873173015639   3.31203343374447E-005        2.10293666236679 
                    7.9                    0.15   3.00100033344448E-005          1.111921812981        11.1871793912917   2.29796487530852E-006   6.22974136456793E-006        11.1871793912917      0.0322866334393174       -4500.50087280273        -4333.2500548421   1.84000108556156E-005     0.00121734565816937        299.553437983509        301788.810035637      0.0382112016368712                    1007      0.0645112014310023        2249355.91058436        18.5041249243684    3.4151024839878E-005        2.00271740158152 
                    7.9                    0.15   3.10103367789263E-005        1.11192706709367        11.5600867824395   2.37453244875265E-006   6.43737385552614E-006        11.5600867824395      0.0333628586269454       -4500.50087280274       -4331.37748729355   1.83999437307215E-005     0.00115642761022098          299.5510907045        301791.063599325      0.0393644297721169                    1007      0.0656644295802226        2234583.68776009        19.1209325471728   3.51817153423114E-005        1.90249814079625 
                    7.9                    0.15   3.20106702234078E-005        1.11193232120634        11.9329941735872   2.45110002219678E-006   6.64500634648435E-006        11.9329941735872      0.0344390838145734       -4500.50087280273       -4329.50491974499   1.83998766058275E-005     0.00109550956227259        299.548743425492        301793.317163013      0.0405176579073626                    1007      0.0668176577294428        2219811.46493582        19.7377401699773   3.62124058447447E-005        1.80227888001098 
                    7.9                    0.15   3.30110036678893E-005          1.111937575319        12.3059015647349   2.52766759564092E-006   6.85263883744257E-006        12.3059015647349      0.0355153090022014       -4500.50087280273       -4327.63235219643   1.83998094809334E-005      0.0010345915143242        299.546396146484        301795.570726701      0.0416708860426083                    1007       0.067970885878663        2205039.24211154        20.3545477927818   3.72430963471781E-005        1.70205961922571 
                    7.9                    0.15   3.40113371123708E-005        1.11194282943167        12.6788089558826   2.60423516908505E-006   7.06027132840078E-006        12.6788089558826      0.0365915341898293       -4500.50087280273       -4325.75978464788   1.83997423560394E-005    0.000973673466375806        299.544048867475        301797.824290388       0.042824114177854                    1007      0.0691241140278832        2190267.01928727        20.9713554155862   3.82737868496115E-005        1.60184035844044 
                    7.9                    0.15   3.50116705568523E-005        1.11194808354434        13.0517163470303   2.68080274252919E-006     7.267903819359E-006        13.0517163470303      0.0376677593774573       -4500.50087280274       -4323.88721709932   1.83996752311453E-005    0.000912755418427416        299.541701588467        301800.077854076      0.0439773423130998                    1007      0.0702773421771035          2175494.796463        21.5881630383907   3.93044773520448E-005        1.50162109765517 
                    7.9                    0.15   3.60120040013338E-005        1.11195333765701         13.424623738178   2.75737031597332E-006   7.47553631031721E-006         13.424623738178      0.0387439845650853       -4500.50087280274       -4322.01464955076   1.83996081062512E-005    0.000851837370479025        299.539354309459        301802.331417764      0.0451305704483455                    1007      0.0714305703263237        2160722.57363873        22.2049706611952   4.03351678544782E-005         1.4014018368699 
                    7.9                    0.15   3.70123374458153E-005        1.11195859176968        13.7975311293257   2.83393788941745E-006   7.68316880127543E-006        13.7975311293257      0.0398202097527133       -4500.50087280273        -4320.1420820022   1.83995409813572E-005    0.000790919322530634         299.53700703045        301804.584981452      0.0462837985835912                    1007      0.0725837984755439        2145950.35081446        22.8217782839996   4.13658583569115E-005        1.30118257608463 
                    7.9                    0.15   3.80126708902968E-005        1.11196384588235        14.1704385204735   2.91050546286159E-006   7.89080129223364E-006        14.1704385204735      0.0408964349403412       -4500.50087280273       -4318.26951445365   1.83994738564631E-005    0.000730001274582243        299.534659751442         301806.83854514      0.0474370267188369                    1007      0.0737370266247641        2131178.12799019        23.4385859068041   4.23965488593449E-005        1.20096331529936 
                    7.9                    0.15   3.90130043347783E-005        1.11196909999502        14.5433459116212   2.98707303630572E-006   8.09843378319186E-006        14.5433459116212      0.0419726601279692       -4500.50087280273       -4316.39694690509   1.83994067315691E-005    0.000669083226633852        299.532312472433        301809.092108828      0.0485902548540827                    1007      0.0748902547739843        2116405.90516592        24.0553935296086   4.34272393617782E-005        1.10074405451409 
                    7.9                    0.15   4.00133377792598E-005        1.11197435410768        14.9162533027689   3.06364060974986E-006   8.30606627415007E-006        14.9162533027689      0.0430488853155972       -4500.50087280273       -4314.52437935653    1.8399339606675E-005    0.000608165178685461        299.529965193425        301811.345672516      0.0497434829893284                    1007      0.0760434829232046        2101633.68234164         24.672201152413   4.44579298642116E-005        1.00052479372882 
                    7.9                    0.15   4.10136712237413E-005        1.11197960822035        15.2891606939166   3.14020818319399E-006   8.51369876510829E-006        15.2891606939166      0.0441251105032252       -4500.50087280273       -4312.65181180797   1.83992724817809E-005     0.00054724713073707        299.527617914417        301813.599236204      0.0508967111245741                    1007      0.0771967110724248        2086861.45951737        25.2890087752175    4.5488620366645E-005       0.900305532943548 
                    7.9                    0.15   4.20140046682227E-005        1.11198486233302        15.6620680850643   3.21677575663812E-006    8.7213312560665E-006        15.6620680850643      0.0452013356908531       -4500.50087280273       -4310.77924425942   1.83992053568869E-005     0.00048632908278868        299.525270635408        301815.852799892      0.0520499392598198                    1007       0.078349939221645         2072089.2366931         25.905816398022   4.65193108690783E-005       0.800086272158278 
                    7.9                    0.15   4.30143381127042E-005        1.11199011644569         16.034975476212   3.29334333008226E-006   8.92896374702471E-006         16.034975476212      0.0462775608784811       -4500.50087280273       -4308.90667671086   1.83991382319928E-005    0.000425411034840289          299.5229233564        301818.106363579      0.0532031673950655                    1007      0.0795031673708652        2057317.01386883        26.5226240208264   4.75500013715117E-005       0.699867011373008 
                    7.9                    0.15   4.40146715571857E-005        1.11199537055836        16.4078828673597   3.36991090352639E-006   9.13659623798293E-006        16.4078828673597      0.0473537860661091       -4500.50087280274        -4307.0341091623   1.83990711070987E-005    0.000364492986891898        299.520576077392        301820.359927267      0.0543563955303113                    1007      0.0806563955200854        2042544.79104456        27.1394316436309    4.8580691873945E-005       0.599647750587737 
                    7.9                    0.15   4.50150050016672E-005        1.11200062467103        16.7807902585074   3.44647847697053E-006   9.34422872894115E-006        16.7807902585074      0.0484300112537371       -4500.50087280273       -4305.16154161374   1.83990039822047E-005    0.000303574938943507        299.518228798383        301822.613490955       0.055509623665557                    1007      0.0818096236693057        2027772.56822029        27.7562392664354   4.96113823763784E-005       0.499428489802466 
                    7.9                    0.15   4.60153384461487E-005         1.1120058787837        17.1536976496552   3.52304605041466E-006   9.55186121989936E-006        17.1536976496552       0.049506236441365       -4500.50087280274       -4303.28897406519   1.83989368573106E-005    0.000242656890995116        299.515881519375        301824.867054643      0.0566628518008027                    1007      0.0829628518185259        2013000.34539602        28.3730468892398   5.06420728788118E-005       0.399209229017196 
                    7.9                    0.15   4.70156718906302E-005        1.11201113289636        17.5266050408029   3.59961362385879E-006   9.75949371085757E-006        17.5266050408029       0.050582461628993       -4500.50087280273       -4301.41640651663   1.83988697324166E-005    0.000181738843046726        299.513534240367        301827.120618331      0.0578160799360484                    1007      0.0841160799677461        1998228.12257174        28.9898545120443   5.16727633812451E-005       0.298989968231926 
                    7.9                    0.15   4.80160053351117E-005        1.11201638700903        17.8995124319506   3.67618119730293E-006   9.96712620181579E-006        17.8995124319506       0.051658686816621       -4500.50087280274       -4299.54383896807   1.83988026075225E-005    0.000120820795098334        299.511186961358        301829.374182019      0.0589693080712942                    1007      0.0852693081169663        1983455.89974747        29.6066621348488   5.27034538836785E-005       0.198770707446655 
                    7.9                    0.15   4.90163387795932E-005         1.1120216411217        18.2724198230983   3.75274877074706E-006    1.0174758692774E-005        18.2724198230983       0.052734912004249       -4500.50087280273       -4297.67127141951   1.83987354826284E-005   5.99027471499436E-005         299.50883968235        301831.627745707      0.0601225362065399                    1007      0.0864225362661865         1968683.6769232        30.2234697576532   5.37341443861118E-005      0.0985514466613851 
                    7.9                    0.15   5.00166722240747E-005        1.11202694942952        18.6411516943837   3.82845483086705E-006   1.03841810397505E-005        18.6411516943837      0.0537990911359719       -4500.50087280273       -4295.78259238049    1.8398667665939E-005                       0         299.50650384533        301833.847739033      0.0612871683157751                    1007      0.0875871683885939        1953850.60265753        30.8314568807979   5.47750271177352E-005   2.50612159040591E-006 
                    7.9                    0.15   5.10170056685562E-005        1.11203545525091        18.7635278936232   3.85333160482677E-006   1.06992048918776E-005        18.7635278936232      0.0541525529688043       -4500.50087280273       -4292.94333540349   1.83985590333193E-005                       0        299.504843085615        301834.087081016      0.0631246348908593                    1007      0.0894246349295082        1935427.29334699        30.9190345236558   5.64172513719846E-005   2.46013322388932E-006 
                    7.9                    0.15   5.20173391130377E-005        1.11204396107231        18.8859040928626   3.87820837878649E-006   1.10142287440047E-005        18.8859040928626      0.0545060148016367       -4500.50087280273       -4290.10407842649   1.83984504006997E-005                       0        299.503182325901        301834.326422999      0.0649621014659435                    1007      0.0912621014704226        1917003.98403644        31.0066121665137   5.80594756262342E-005   2.41414485737273E-006 
                    7.9                    0.15   5.30176725575192E-005        1.11205246689371        19.0082802921021    3.9030851527462E-006   1.13292525961318E-005        19.0082802921021      0.0548594766344691       -4500.50087280273       -4287.26482144948   1.83983417680801E-005                       0        299.501521566187        301834.565764983      0.0667995680410277                    1007       0.093099568011337         1898580.6747259        31.0941898093716   5.97016998804836E-005   2.36815649085614E-006 
                    7.9                    0.15   5.40180060020007E-005         1.1120609727151        19.1306564913415   3.92796192670592E-006   1.16442764482589E-005        19.1306564913415      0.0552129384673015       -4500.50087280273       -4284.42556447248   1.83982331354604E-005                       0        299.499860806473        301834.805106966      0.0686370346161119                    1007      0.0949370345522514        1880157.36541535        31.1817674522295   6.13439241347332E-005   2.32216812433955E-006 
                    7.9                    0.15   5.50183394464821E-005         1.1120694785365         19.253032690581   3.95283870066564E-006    1.1959300300386E-005         19.253032690581      0.0555664003001339       -4500.50087280273       -4281.58630749547   1.83981245028408E-005                       0        299.498200046759        301835.044448949       0.070474501191196                    1007      0.0967745010931657         1861734.0561048        31.2693450950874   6.29861483889826E-005   2.27617975782296E-006 