VARIABLES = "X"
 "Y"
 "Z"
 "RHO"
 "U"
 "V"
 "W"
 "VelocityMagnitude"
 "Mach"
 "P"
 "P_tot"
 "Vislam"
 "SkinFrictionCoefficient"
 "T"
 "H0"
 "COND_TURB"
 "CP"
 "COND_eff"
 "D"
 "K"
 "VIS_T"
 "YPLUS"
ZONE
DT=(DOUBLE,DOUBLE,DOUBLE,DOUBLE,DOUBLE,DOUBLE,DOUBLE,DOUBLE,DOUBLE,DOUBLE,DOUBLE,DOUBLE,DOUBLE,DOUBLE,DOUBLE,DOUBLE,DOUBLE,DOUBLE,DOUBLE,DOUBLE,DOUBLE,DOUBLE)
                      0                    0.15                       0        1.11387979984283                       0                       0                       0                       0                       0       -4383.06591796875                       0   1.83924767043209E-005      0.0398787371814251        297.824340820313               301809.25      0.0745586976408958                    1007       0.100858703255653               7796141.5                       0   6.66363775962964E-005        8.45180892944336 
    0.00400200100050025                    0.15                       0        1.11370830311663                       0                       0                       0                       0                       0       -4393.22153044296       -1023.46129265805    1.8393155303842E-005       0.038169478588533        298.316941429699        301736.538097174      0.0733220820250423                    1007      0.0996220854072347        9444194.11205603                       0   6.55311597256969E-005         8.3038046470936 
     0.0080040020010005                    0.15                       0        1.11353680639043                       0                       0                       0                       0                       0       -4403.37714291716        -2046.9225853161    1.8393833903363E-005      0.0364602199956409        298.809542039086        301663.826194347      0.0720854664091887                    1007      0.0983854675588159        11092246.7241121                       0   6.44259418550974E-005        8.15580036474383 
     0.0120060030015008                    0.15                       0        1.11336530966422                       0                       0                       0                       0                       0       -4413.53275539137       -3070.38387797416   1.83945125028841E-005      0.0347509614027489        299.302142648473        301591.114291521      0.0708488507933352                    1007      0.0971488497103972        12740299.3361681                       0   6.33207239844979E-005        8.00779608239407 
      0.016008004002001                    0.15                       0        1.11319296064229                       0                       0                       0                       0                       0       -4424.27020175127       -3482.03292429907   1.83951156011507E-005      0.0327604256128671          299.4765770947        301574.537721986      0.0693731839810985                    1007      0.0956731821452754        12725374.0595298                       0    6.2001855626115E-005        7.83191879395546 
     0.0200100050025013                    0.15                       0        1.11302017795855                       0                       0                       0                       0                       0        -4435.3036945719       -3582.38203672149   1.83956802831618E-005      0.0306267714507136        299.489123467984        301586.523714982        0.06777588406642                    1007      0.0940758822305969        11864298.8244122                       0   6.05742784553084E-005        7.64185927068072 
     0.0240120060030015                    0.15                       0         1.1128473952748                       0                       0                       0                       0                       0       -4446.33718739252       -3682.73114914391   1.83962449651729E-005        0.02849311728856        299.501669841268        301598.509707979      0.0661785841517415                    1007      0.0924785823159184        11003223.5892946                       0   5.91467012845018E-005        7.45179974740597 
     0.0280140070035018                    0.15                       0        1.11272684880171                       0                       0                       0                       0                       0       -4454.35090738729       -3758.90171660537   1.83965919280747E-005      0.0268434281076578        299.509405459566        301605.874327789      0.0649176544140374                    1007      0.0912176525782143        10336268.5617809                       0   5.80197525052973E-005        7.30235938992483 
      0.032016008004002                    0.15                       0        1.11271452504197                       0                       0                       0                       0                       0       -4456.10827752744       -3784.97929860927   1.83964878216421E-005      0.0261964150930402        299.507174180352         301603.66441033      0.0643536146840135                    1007      0.0906536128481905        10071490.7848924                       0     5.751564408613E-005        7.23707361183147 
     0.0360180090045022                    0.15                       0        1.11270220128222                       0                       0                       0                       0                       0       -4457.86564766758       -3811.05688061316   1.83963837152096E-005      0.0255494020784226        299.504942901138        301601.454492871      0.0637895749539897                    1007      0.0900895731181666        9806713.00800399                       0   5.70115356669626E-005        7.17178783373811 
     0.0400200100050025                    0.15                       0        1.11268987752247                       0                       0                       0                       0                       0       -4459.62301780773       -3837.13446261705    1.8396279608777E-005       0.024902389063805        299.502711621924        301599.244575413      0.0632255352239659                    1007      0.0895255333881428        9541935.23111555                       0   5.65074272477953E-005        7.10650205564475 
     0.0440220110055028                    0.15                       0        1.11266671555707                       0                       0                       0                       0                       0       -4461.27873165098       -3852.72069543072   1.83963295677441E-005      0.0245179074204686        299.503761035791        301600.301541396      0.0628683569469769                    1007      0.0891683551111539        9383267.90145072                       0   5.61882016177253E-005         7.0658507070403 
      0.048024012006003                    0.15                       0         1.1126434254372                       0                       0                       0                       0                       0       -4462.93324347721       -3868.18287512897   1.83963813484304E-005      0.0241365300332116        299.504849241637        301601.397136068      0.0625136246668988                    1007      0.0888136228310758        9225855.25612806                       0   5.58711621017156E-005        7.02549064391968 
     0.0520260130065033                    0.15                       0        1.11262013531733                       0                       0                       0                       0                       0       -4464.58775530343       -3883.64505482722   1.83964331291168E-005      0.0237551526459546        299.505937447483         301602.49273074      0.0621588923868207                    1007      0.0884588905509977        9068442.61080539                       0   5.55541225857059E-005        6.98513058079905 
     0.0560280140070035                    0.15                       0        1.11259724057395                       0                       0                       0                       0                       0       -4466.06307841421       -3896.45565116543   1.83965062026256E-005      0.0234378942042932        299.507478150086        301604.045585293      0.0618571812559987                    1007      0.0881571794201756        8937325.21310655                       0   5.52844702460202E-005         6.9509434144219 
     0.0600300150075038                    0.15                       0        1.11257455771181                       0                       0                       0                       0                       0       -4467.44237475183       -3907.84527077992   1.83965906869033E-005      0.0231549969411689        299.509261344539        301605.843484242      0.0615838840231113                    1007      0.0878838821872882        8820299.37118559                       0   5.50402125726209E-005        6.92006428758164 
      0.064032016008004                    0.15                       0        1.11255187484966                       0                       0                       0                       0                       0       -4468.82167108945       -3919.23489039442    1.8396675171181E-005      0.0228720996780447        299.511044538993        301607.641383192      0.0613105867902239                    1007      0.0876105849544008        8703273.52926463                       0   5.47959548992216E-005        6.88918516074138 
     0.0680340170085043                    0.15                       0        1.11253025705901                       0                       0                       0                       0                       0       -4470.11050227262       -3929.85303051917   1.83967594843882E-005      0.0226072219180399        299.512824863359        301609.433404202      0.0610528140253815                    1007      0.0873528125399109        8593713.23411705                       0   5.45655724151159E-005        6.86008122779537 
     0.0720360180090045                    0.15                       0        1.11251096769593                       0                       0                       0                       0                       0       -4471.20156122983       -3938.78458516368   1.83968434236061E-005      0.0223817378590037        299.514598913226        301611.212575038      0.0608289803901483                    1007      0.0871289800209603        8500473.89494747                       0   5.43655234565406E-005        6.83485817086285 
     0.0760380190095048                    0.15                       0        1.11249167833285                       0                       0                       0                       0                       0       -4472.29262018705       -3947.71613980819   1.83969273628239E-005      0.0221562537999675        299.516372963093        301612.991745873      0.0606051467549151                    1007      0.0869051475020096        8407234.55577788                       0   5.41654744979653E-005        6.80963511393033 
      0.080040020010005                    0.15                       0        1.11247238896977                       0                       0                       0                       0                       0       -4473.38367914426        -3956.6476944527   1.83970113020418E-005      0.0219307697409314         299.51814701296        301614.770916708      0.0603813131196818                    1007       0.086681314983059         8313995.2166083                       0     5.396542553939E-005        6.78441205699781 
     0.0840420210105053                    0.15                       0        1.11245592538567                       0                       0                       0                       0                       0       -4474.28011686507       -3963.97090891637   1.83970883210924E-005      0.0217433404866951          299.5197603074        301616.403764382      0.0601912492875936                    1007      0.0864912500868683        8236567.41195597                       0   5.37955570273308E-005        6.76302312862402 
     0.0880440220110055                    0.15                       0        1.11243952942706                       0                       0                       0                       0                       0       -4475.17189698365       -3971.25563318769   1.83971651745321E-005       0.021556821945736        299.521369754702        301618.033110305      0.0600019936217344                    1007      0.0863019933047266        8159518.00300149                       0   5.36264107823677E-005          6.741725957173 
     0.0920460230115058                    0.15                       0        1.11242313346844                       0                       0                       0                       0                       0       -4476.06367710222         -3978.540357459   1.83972420279719E-005       0.021370303404777        299.522979202003        301619.662456228      0.0598127379558753                    1007      0.0861127365225848        8082468.59404702                       0   5.34572645374046E-005        6.72042878572198 
      0.096048024012006                    0.15                       0        1.11240822210975                       0                       0                       0                       0                       0       -4476.86480471681        -3985.0738540657     1.839731330524E-005      0.0212018202548626         299.52447755555        301621.172054777      0.0596398585692622                    1007      0.0859398574471891        8012917.19084542                       0   5.33027543488966E-005        6.70098476042564 
      0.100050025012506                    0.15                       0        1.11239414801891                       0                       0                       0                       0                       0       -4477.61480715944       -3991.18368180672    1.8397381437722E-005      0.0210435085004198          299.5259132557         301622.61411956      0.0594762148910489                    1007      0.0857762148852584        7947594.42796398                       0   5.31564984376582E-005        6.68258585149852 
      0.104052026013007                    0.15                       0        1.11238007392807                       0                       0                       0                       0                       0       -4478.36480960207       -3997.29350954774   1.83974495702041E-005      0.0208851967459771         299.52734895585        301624.056184342      0.0593125712128357                    1007      0.0856125723233278        7882271.66508253                       0   5.30102425264199E-005         6.6641869425714 
      0.108054027013507                    0.15                       0        1.11236656111679                       0                       0                       0                       0                       0        -4479.0823165489         -4003.138001618   1.83975153968736E-005      0.0207333204799097        299.528740444441        301625.452976488      0.0591548840464533                    1007      0.0854548859359206        7819623.56428214                       0   5.28693104067974E-005         6.6464607487803 
      0.112056028014007                    0.15                       0        1.11235434452017                       0                       0                       0                       0                       0       -4479.72477864909       -4008.36972954251   1.83975758985177E-005      0.0205963062809192          299.5300298312        301626.745216358      0.0590109528024206                    1007      0.0853109546918879         7763152.3074037                       0   5.27406730103538E-005        6.63028811812103 
      0.116058029014507                    0.15                       0        1.11234212792355                       0                       0                       0                       0                       0       -4480.36724074928       -4013.60145746701   1.83976364001617E-005      0.0204592920819287        299.531319217959        301628.037456228      0.0588670215583879                    1007      0.0851670234478552        7706681.05052527                       0   5.26120356139102E-005        6.61411548746175 
      0.120060030015008                    0.15                       0        1.11232991132693                       0                       0                       0                       0                       0       -4481.00970284947       -4018.83318539152   1.83976969018058E-005      0.0203222778829382        299.532608604717        301629.329696098      0.0587230903143553                    1007      0.0850230922038225        7650209.79364683                       0   5.24833982174666E-005        6.59794285680247 
      0.124062031015508                    0.15                       0         1.1123191079478                       0                       0                       0                       0                       0       -4481.57084303871       -4023.40982014445   1.83977516179898E-005      0.0202012851754164        299.533756807603         301630.48639945      0.0585942337491651                    1007      0.0848942345614848        7600393.63281641                       0   5.23682325277106E-005        6.58347049911598 
      0.128064032016008                    0.15                       0        1.11230835591393                       0                       0                       0                       0                       0       -4482.12902862564       -4027.96265393439   1.83978061239754E-005      0.0200808745636053        299.534899880971        301631.638178464       0.058465924879919                    1007      0.0847659245759562        7550819.26613307                       0    5.2253556294426E-005        6.56905991605308 
      0.132066033016508                    0.15                       0        1.11229760388006                       0                       0                       0                       0                       0       -4482.68721421257       -4032.51548772433    1.8397860629961E-005      0.0199604639517942        299.536042954339        301632.789957479      0.0583376160106729                    1007      0.0846376145904275        7501244.89944973                       0   5.21388800611414E-005        6.55464933299017 
      0.136068034017009                    0.15                       0         1.1122875917906                       0                       0                       0                       0                       0       -4483.20278474198       -4036.73011041654   1.83979117145359E-005      0.0198483857726413        299.537117145609        301633.871201226      0.0582172608430711                    1007      0.0845172590072481         7455129.3941971                       0   5.20313135194661E-005        6.54113511409445 
      0.140070035017509                    0.15                       0        1.11227801855115                       0                       0                       0                       0                       0       -4483.69308091546       -4040.74414514386   1.83979607699229E-005      0.0197412494351978        299.538150483933        301634.910611556      0.0581016228974551                    1007      0.0844016210616321        7411065.28814408                       0   5.19279636299952E-005        6.52815251543619 
      0.144072036018009                    0.15                       0        1.11226844531169                       0                       0                       0                       0                       0       -4484.18337708894       -4044.75817987118     1.839800982531E-005      0.0196341130977544        299.539183822258        301635.950021886      0.0579859849518391                    1007      0.0842859831160161        7367001.18209105                       0   5.18246137405243E-005        6.51516991677792 
      0.148074037018509                    0.15                       0        1.11225917298774                       0                       0                       0                       0                       0       -4484.65748010724       -4048.64536821633   1.83980574557159E-005      0.0195301229161224         299.54018794065        301636.962231116      0.0578733895602019                    1007      0.0841733880486412         7324242.2066033                       0   5.17239830318333E-005         6.5025300297396 
       0.15207603801901                    0.15                       0        1.11225063565852                       0                       0                       0                       0                       0       -4485.09203087872       -4052.22273062801   1.83981016055642E-005      0.0194338173104665        299.541120688518        301637.908000875      0.0577682256940874                    1007      0.0840682252988093        7284671.05002501                       0   5.16299940003343E-005        6.49072722568102 
       0.15607803901951                    0.15                       0         1.1122420983293                       0                       0                       0                       0                       0        -4485.5265816502       -4055.80009303968   1.83981457554126E-005      0.0193375117048107        299.542053436386        301638.853770635      0.0576630618279728                    1007      0.0839630625489773        7245099.89344673                       0   5.15360049688354E-005        6.47892442162243 
       0.16008004002001                    0.15                       0        1.11223356100009                       0                       0                       0                       0                       0       -4485.96113242168       -4059.37745545136   1.83981899052609E-005      0.0192412060991548        299.542986184254        301639.799540395      0.0575578979618583                    1007      0.0838578997991454        7205528.73686844                       0   5.14420159373364E-005        6.46712161756385 
       0.16408204102051                    0.15                       0        1.11222584090154                       0                       0                       0                       0                       0       -4486.35146992442       -4062.61150252861   1.83982309376217E-005      0.0191534702424305        299.543849195105        301640.664973112      0.0574611192229034                    1007      0.0837611200482682        7169509.54877439                       0   5.13555192676837E-005         6.4562623063107 
      0.168084042021011                    0.15                       0        1.11221816087735                       0                       0                       0                       0                       0       -4486.73963935093       -4065.82871452816   1.83982718171109E-005      0.0190661546185784        299.544708786278        301641.526466358       0.057364751663564                    1007      0.0836647513726463        7133664.53776889                       0   5.12693899993125E-005        6.44544926090441 
      0.172086043021511                    0.15                       0        1.11221048085316                       0                       0                       0                       0                       0       -4487.12780877744       -4069.04592652772   1.83983126966002E-005      0.0189788389947264         299.54556837745        301642.387959605      0.0572683841042247                    1007      0.0835683826970243        7097819.52676338                       0   5.11832607309412E-005        6.43463621549811 
      0.176088044022011                    0.15                       0         1.1122032409313                       0                       0                       0                       0                       0       -4487.49173243849        -4072.0773294362   1.83983512256894E-005      0.0188961850172687        299.546382902144        301643.203304777      0.0571766259291281                    1007       0.083476624093305        7063905.72036018                       0     5.110125272111E-005        6.42434196271796 
      0.180090045022511                    0.15                       0        1.11219627532797                       0                       0                       0                       0                       0        -4487.8405435628       -4074.99291638007   1.83983882897596E-005       0.018816436673065        299.547169336621        301643.989885568      0.0570877408119605                    1007      0.0833877389761375        7031195.64582291                       0   5.10218135174148E-005        6.41437107661535 
      0.184092046023012                    0.15                       0        1.11218930972463                       0                       0                       0                       0                       0       -4488.18935468711       -4077.90850332393   1.83984253538298E-005      0.0187366883288612        299.547955771098        301644.776466358       0.056998855694793                    1007      0.0832988538589699        6998485.57128564                       0   5.09423743137197E-005        6.40440019051274 
      0.188094047023512                    0.15                       0        1.11218251342354                       0                       0                       0                       0                       0       -4488.52874288707       -4080.75274526912   1.83984616580921E-005      0.0186587385097151        299.548724359128        301645.547383067      0.0569117669241616                    1007      0.0832117650883385        6966519.89569785                       0   5.08645401284014E-005        6.39463127202067 
      0.192096048024012                    0.15                       0        1.11217615507793                       0                       0                       0                       0                       0       -4488.84375561804         -4083.412430092    1.8398495996863E-005       0.018585441162574        299.549446781496        301646.277779515      0.0568293249900786                    1007      0.0831293231542555        6936479.85092546                       0   5.07908578469084E-005        6.38538480866486 
      0.196098049024512                    0.15                       0        1.11216979673232                       0                       0                       0                       0                       0       -4489.15876834902       -4086.07211491488    1.8398530335634E-005      0.0185121438154329        299.550169203865        301647.008175963      0.0567468830559956                    1007      0.0830468812201726        6906439.80615308                       0   5.07171755654154E-005        6.37613834530905 
      0.200100050025012                    0.15                       0        1.11216343838671                       0                       0                       0                       0                       0       -4489.47378107999       -4088.73179973776   1.83985646744049E-005      0.0184388464682919        299.550891626233        301647.738572411      0.0566644411219126                    1007      0.0829644392860896        6876399.76138069                       0   5.06434932839224E-005        6.36689188195324 
      0.204102051025513                    0.15                       0        1.11215758454865                       0                       0                       0                       0                       0       -4489.76137873624       -4091.18483826874   1.83985964471178E-005      0.0183707807593238        299.551562387028        301648.416067409      0.0565872733938271                    1007       0.082887271558004        6848524.30290145                       0   5.05745243379255E-005        6.35823831586852 
      0.208104052026013                    0.15                       0        1.11215176201869                       0                       0                       0                       0                       0        -4490.0472751024       -4093.62505300502   1.83986280605894E-005      0.0183030397087529        299.552229941875        301649.090279515       0.056510432965759                    1007       0.082810431129936        6820783.17158579                       0   5.05058478861527E-005        6.34962154305417 
      0.212106053026513                    0.15                       0        1.11214593948872                       0                       0                       0                       0                       0       -4490.33317146855       -4096.06526774129   1.83986596740611E-005      0.0182352986581821        299.552897496722        301649.764491621       0.056433592537691                    1007      0.0827335907018679        6793042.04027013                       0   5.04371714343798E-005        6.34100477023981 
      0.216108054027014                    0.15                       0        1.11214041918621                       0                       0                       0                       0                       0       -4490.60341694285       -4098.39053242442   1.83986899699256E-005      0.0181704783526106        299.553537419344        301650.410408329      0.0563597204149694                    1007      0.0826597185791463        6766508.33016508                       0   5.03711486433703E-005        6.33272157018336 
      0.220110055027514                    0.15                       0        1.11213509675084                       0                       0                       0                       0                       0       -4490.86341583878        -4100.6405397523   1.83987194031579E-005      0.0181075702474945        299.554159251256         301651.03780015      0.0562877916302783                    1007      0.0825877897944553        6740765.11405703                       0   5.03068631937997E-005        6.32465675892145 